 Gaussian 09, Revision D.01,
 Gaussian 09:  EM64L-G09RevD.01 24-Apr-2013

 ---------------------------------------------------------
 #p opt freq m062x/6-31+g(d) scrf=(smd,solvent=chloroform)
 ---------------------------------------------------------

 -----
 2.g09
 -----
 Symbolic Z-matrix:
 Charge =  0 Multiplicity = 1

 SCF Done:  E(RM062X) =  -601.858118887     A.U. after   14 cycles
 SCF Done:  E(RM062X) =  -601.860114060     A.U. after   12 cycles
 SCF Done:  E(RM062X) =  -601.860246821     A.U. after   11 cycles
 SCF Done:  E(RM062X) =  -601.860251647     A.U. after   11 cycles
 SCF Done:  E(RM062X) =  -601.860265973     A.U. after   10 cycles
 SCF Done:  E(RM062X) =  -601.860266577     A.U. after    9 cycles
 SCF Done:  E(RM062X) =  -601.860266776     A.U. after    8 cycles
 SCF Done:  E(RM062X) =  -601.860267089     A.U. after    9 cycles
 SCF Done:  E(RM062X) =  -601.860267614     A.U. after   10 cycles
 SCF Done:  E(RM062X) =  -601.860268249     A.U. after   11 cycles
 SCF Done:  E(RM062X) =  -601.860107576     A.U. after   12 cycles
 SCF Done:  E(RM062X) =  -601.860267530     A.U. after   12 cycles
 SCF Done:  E(RM062X) =  -601.859936655     A.U. after   12 cycles
 SCF Done:  E(RM062X) =  -601.860285648     A.U. after   12 cycles
 SCF Done:  E(RM062X) =  -601.860282121     A.U. after   11 cycles
 SCF Done:  E(RM062X) =  -601.860285368     A.U. after   11 cycles
 SCF Done:  E(RM062X) =  -601.860284354     A.U. after   11 cycles
 SCF Done:  E(RM062X) =  -601.860286420     A.U. after   11 cycles
 SCF Done:  E(RM062X) =  -601.860286904     A.U. after    9 cycles
 Optimization completed.
    -- Stationary point found.

 1\1\GINC-SMP-N121\FOpt\RM062X\6-31+G(d)\C14H23N1\ELK72\03-May-2018\0\\
 #p opt freq m062x/6-31+g(d) scrf=(smd,solvent=chloroform)\\2.g09\\0,1\
 C,-3.8996145769,1.6521991362,-0.5262365965\C,-4.9569394239,0.790580884
 4,-0.8383479206\N,-4.8042649223,-0.5382627744,-0.8301215745\C,-3.61341
 0683,-1.0672119984,-0.5163704368\C,-2.5177018657,-0.2635968452,-0.1947
 653137\C,-2.6526014158,1.1258905536,-0.1957748229\H,-4.0434588871,2.72
 97616979,-0.5406513313\C,-6.3323361843,1.3552702716,-1.2032916038\C,-3
 .4812642658,-2.592666588,-0.5211492388\H,-1.5587757502,-0.7116517462,0

 Normal termination of Gaussian 09 at Thu May  3 14:07:03 2018.

 ---------------------------------------------------------------------
 #P Geom=AllCheck Guess=TCheck SCRF=Check GenChk RM062X/6-31+G(d) Freq
 ---------------------------------------------------------------------

 Structure from the checkpoint file:  "2.chk"
 -----
 2.g09
 -----
 Charge =  0 Multiplicity = 1

                         Standard orientation:
 ---------------------------------------------------------------------
 Center     Atomic      Atomic             Coordinates (Angstroms)
 Number     Number       Type             X           Y           Z
 ---------------------------------------------------------------------
      1          6           0       -1.191983    1.455554   -0.006741
      2          6           0       -1.157850    0.056791   -0.001034
      3          7           0       -0.001932   -0.616297    0.001805
      4          6           0        1.157346    0.056332   -0.000619
      5          6           0        1.193351    1.452212   -0.005898
      6          6           0        0.000099    2.176793   -0.008178
      7          1           0       -2.142030    1.984168   -0.011135
      8          6           0       -2.460044   -0.748232    0.000534
      9          6           0        2.457284   -0.752777    0.000486
     10          1           0        2.144323    1.980191   -0.009172
     11          6           0        0.009990    3.682052    0.005939
     12          1           0        0.711761    4.078515   -0.734935
     13          1           0        0.325943    4.054253    0.987412
     14          1           0       -0.983043    4.088439   -0.205207
     15          6           0       -3.275001   -0.396854   -1.255571
     16          6           0       -3.277793   -0.386972    1.252057
     17          6           0       -2.186566   -2.253870    0.006814
     18          6           0        3.277114   -0.394113    1.251316
     19          6           0        3.272650   -0.404401   -1.256139
     20          6           0        2.179486   -2.257718    0.007196
     21          1           0       -3.542471    0.665181   -1.282305
     22          1           0       -4.205232   -0.977424   -1.272500
     23          1           0       -2.711605   -0.629610   -2.166669
     24          1           0       -1.617177   -2.563850   -0.875368
     25          1           0       -3.141031   -2.793403    0.008609
     26          1           0       -1.618006   -2.556721    0.891996
     27          1           0       -3.544023    0.675545    1.270656
     28          1           0       -2.716844   -0.613979    2.166138
     29          1           0       -4.208737   -0.966355    1.270853
     30          1           0        1.610641   -2.558920    0.892753
     31          1           0        3.132452   -2.799912    0.008497
     32          1           0        1.608712   -2.566361   -0.874553
     33          1           0        3.546503    0.667627    1.269588
     34          1           0        4.206374   -0.976230    1.269508
     35          1           0        2.716165   -0.619370    2.165832
     36          1           0        3.543467    0.656799   -1.283017
     37          1           0        2.707879   -0.635335   -2.166855
     38          1           0        4.201015   -0.987948   -1.273732
 ---------------------------------------------------------------------

 SCF Done:  E(RM062X) =  -601.860286904     A.U. after    1 cycles

 The electronic state is 1-A.
 Alpha  occ. eigenvalues --  -14.74967 -10.58336 -10.58310 -10.57035 -10.55505
 Alpha  occ. eigenvalues --  -10.55501 -10.54555 -10.54518 -10.54064 -10.52906
 Alpha  occ. eigenvalues --  -10.52905 -10.52902 -10.52900 -10.52146 -10.52143
 Alpha  occ. eigenvalues --   -1.05011  -0.93086  -0.91537  -0.90188  -0.82810
 Alpha  occ. eigenvalues --   -0.79853  -0.77064  -0.77045  -0.76853  -0.76335
 Alpha  occ. eigenvalues --   -0.71264  -0.69027  -0.61939  -0.60388  -0.56706
 Alpha  occ. eigenvalues --   -0.55995  -0.52668  -0.52040  -0.51087  -0.49669
 Alpha  occ. eigenvalues --   -0.49082  -0.48878  -0.48722  -0.45967  -0.45845
 Alpha  occ. eigenvalues --   -0.45731  -0.45015  -0.43767  -0.43441  -0.42828
 Alpha  occ. eigenvalues --   -0.42716  -0.41788  -0.41785  -0.40213  -0.38536
 Alpha  occ. eigenvalues --   -0.38159  -0.37894  -0.37817  -0.36376  -0.32287
 Alpha  occ. eigenvalues --   -0.30929  -0.29119
 Alpha virt. eigenvalues --    0.01615   0.01958   0.02031   0.02986   0.03008
 Alpha virt. eigenvalues --    0.04040   0.04415   0.04468   0.04845   0.05050
 Alpha virt. eigenvalues --    0.06142   0.06523   0.06638   0.07054   0.07147

 Mulliken charges:
               1
     1  C   -0.642561
     2  C   -0.825144
     3  N   -0.200861
     4  C   -0.794992
     5  C    0.451556
     6  C    0.245253
     7  H    0.237451
     8  C   -0.310867
     9  C   -0.298953
    10  H    0.239654
    11  C   -0.455996
    12  H    0.241924
    13  H    0.254630
    14  H    0.229008
    15  C   -0.403004
    16  C   -0.405181
    17  C   -0.484318
    18  C   -0.405938
    19  C   -0.400004
    20  C   -0.488773
    21  H    0.233460
    22  H    0.230900
    23  H    0.241945
    24  H    0.238467
    25  H    0.219167
    26  H    0.238424
    27  H    0.233631
    28  H    0.241912
    29  H    0.230932
    30  H    0.238432
    31  H    0.219100
    32  H    0.238498
    33  H    0.233504
    34  H    0.230794
    35  H    0.241874
    36  H    0.233402
    37  H    0.241927
    38  H    0.230746
 Sum of Mulliken charges =   0.00000

 Dipole moment (field-independent basis, Debye):
    X=              0.0379    Y=              2.6382    Z=              0.0344  Tot=              2.6387
 Quadrupole moment (field-independent basis, Debye-Ang):
   XX=            -88.9858   YY=            -91.2693   ZZ=            -98.3101
   XY=              0.1793   XZ=              0.0022   YZ=              0.1313

  Exact polarizability: 245.230   0.900 228.502   0.051   0.297 165.352
 Approx polarizability: 218.757   0.903 211.743   0.013   0.193 161.663

                      1                      2                      3
                      A                      A                      A
 Frequencies --     46.6043                49.7752                53.2189
 Red. masses --      2.5085                 2.7846                 1.0829
 Frc consts  --      0.0032                 0.0041                 0.0018
 IR Inten    --      0.0357                 0.0011                 0.3482

                      4                      5                      6
                      A                      A                      A
 Frequencies --    110.1165               132.0606               141.9728
 Red. masses --      3.0977                 3.0035                 3.3521
 Frc consts  --      0.0221                 0.0309                 0.0398
 IR Inten    --      3.0359                 0.0093                 0.4282

                      7                      8                      9
                      A                      A                      A
 Frequencies --    205.4573               226.1080               229.0343
 Red. masses --      2.8776                 2.7831                 1.0746
 Frc consts  --      0.0716                 0.0838                 0.0332
 IR Inten    --      2.6521                 0.2569                 0.0104

                     10                     11                     12
                      A                      A                      A
 Frequencies --    238.9686               265.8109               288.5156
 Red. masses --      1.1275                 2.8538                 1.4739
 Frc consts  --      0.0379                 0.1188                 0.0723
 IR Inten    --      0.5357                 0.0025                 0.1286

                     13                     14                     15
                      A                      A                      A
 Frequencies --    294.8112               303.5341               311.0366
 Red. masses --      1.3552                 1.0400                 1.5658
 Frc consts  --      0.0694                 0.0565                 0.0892
 IR Inten    --      0.0053                 0.0071                 0.1103

                     16                     17                     18
                      A                      A                      A
 Frequencies --    321.1122               327.9457               339.5009
 Red. masses --      1.3184                 1.7463                 1.8781
 Frc consts  --      0.0801                 0.1107                 0.1275
 IR Inten    --      1.1430                 0.0120                 3.4892

                     19                     20                     21
                      A                      A                      A
 Frequencies --    355.3633               356.0735               391.0792
 Red. masses --      2.5705                 2.5906                 2.2855
 Frc consts  --      0.1913                 0.1935                 0.2059
 IR Inten    --      1.3289                 0.1622                 0.0003

                     22                     23                     24
                      A                      A                      A
 Frequencies --    400.3019               411.8762               451.7548
 Red. masses --      2.5759                 2.6477                 2.7908
 Frc consts  --      0.2432                 0.2646                 0.3356
 IR Inten    --      0.6950                 3.8637                 0.0652

                     25                     26                     27
                      A                      A                      A
 Frequencies --    534.9785               541.1451               579.3948
 Red. masses --      3.0222                 5.0583                 3.1246
 Frc consts  --      0.5096                 0.8727                 0.6180
 IR Inten    --      0.4145                 5.4600                 1.5733

                     28                     29                     30
                      A                      A                      A
 Frequencies --    580.6930               586.2715               709.2638
 Red. masses --      2.9891                 3.4153                 4.4486
 Frc consts  --      0.5939                 0.6916                 1.3185
 IR Inten    --      1.2318                 3.2136                 0.0004

                     31                     32                     33
                      A                      A                      A
 Frequencies --    799.3729               800.0599               844.3223
 Red. masses --      3.0365                 4.0892                 2.8096
 Frc consts  --      1.1432                 1.5422                 1.1801
 IR Inten    --      4.0022                 0.0728                 0.1693

                     34                     35                     36
                      A                      A                      A
 Frequencies --    900.3756               934.9921               939.8658
 Red. masses --      1.4770                 1.3781                 2.3655
 Frc consts  --      0.7054                 0.7098                 1.2312
 IR Inten    --     35.0608                 0.0461                16.5060

                     37                     38                     39
                      A                      A                      A
 Frequencies --    955.5394               955.8190               958.4067
 Red. masses --      1.6125                 1.6144                 2.8947
 Frc consts  --      0.8675                 0.8690                 1.5666
 IR Inten    --      0.0816                 2.4965                 8.6074

                     40                     41                     42
                      A                      A                      A
 Frequencies --    968.1049               972.2629               976.4554
 Red. masses --      1.5510                 1.6868                 1.2050
 Frc consts  --      0.8565                 0.9395                 0.6769
 IR Inten    --      0.0944                18.0895                 0.0672

                     43                     44                     45
                      A                      A                      A
 Frequencies --    976.9647              1024.5704              1035.6791
 Red. masses --      1.2069                 5.5632                 1.5008
 Frc consts  --      0.6787                 3.4408                 0.9485
 IR Inten    --      1.4279                 5.0675                 4.0136

                     46                     47                     48
                      A                      A                      A
 Frequencies --   1055.7055              1058.6921              1061.9742
 Red. masses --      1.4006                 1.3990                 1.4003
 Frc consts  --      0.9197                 0.9239                 0.9304
 IR Inten    --      2.4299                 0.1796                 0.0104

                     49                     50                     51
                      A                      A                      A
 Frequencies --   1064.1033              1076.5312              1163.9287
 Red. masses --      1.3986                 1.5650                 1.5246
 Frc consts  --      0.9331                 1.0686                 1.2169
 IR Inten    --      0.0187                 8.9832                 2.3575

                     52                     53                     54
                      A                      A                      A
 Frequencies --   1198.8587              1243.1031              1250.4157
 Red. masses --      1.7474                 2.0403                 2.8439
 Frc consts  --      1.4798                 1.8577                 2.6199
 IR Inten    --     27.9117                 2.6454                 6.9936

                     55                     56                     57
                      A                      A                      A
 Frequencies --   1251.7754              1263.2999              1265.9655
 Red. masses --      2.8946                 3.0678                 2.9706
 Frc consts  --      2.6723                 2.8847                 2.8050
 IR Inten    --      0.0146                15.1106                16.0973

                     58                     59                     60
                      A                      A                      A
 Frequencies --   1299.0876              1317.1266              1377.3916
 Red. masses --      2.2071                 6.1585                 3.6884
 Frc consts  --      2.1945                 6.2948                 4.1230
 IR Inten    --     16.0563                 0.3232                 1.8338

                     61                     62                     63
                      A                      A                      A
 Frequencies --   1413.8352              1414.0880              1418.3854
 Red. masses --      1.2418                 1.2414                 1.2763
 Frc consts  --      1.4625                 1.4625                 1.5128
 IR Inten    --      0.1059                24.1363                 1.0870

                     64                     65                     66
                      A                      A                      A
 Frequencies --   1419.0273              1434.0645              1441.4602
 Red. masses --      1.2952                 1.3251                 1.2680
 Frc consts  --      1.5366                 1.6056                 1.5523
 IR Inten    --     23.7514                 4.0991                 0.0159

                     67                     68                     69
                      A                      A                      A
 Frequencies --   1444.9027              1461.1902              1489.9356
 Red. masses --      1.2790                 2.1204                 1.0500
 Frc consts  --      1.5733                 2.6674                 1.3733
 IR Inten    --      0.3007                14.0748                 0.0727

                     70                     71                     72
                      A                      A                      A
 Frequencies --   1490.4129              1491.9562              1492.3571
 Red. masses --      2.1457                 1.0566                 1.0452
 Frc consts  --      2.8082                 1.3857                 1.3715
 IR Inten    --      4.0038                 1.1886                 5.9054

                     73                     74                     75
                      A                      A                      A
 Frequencies --   1494.7853              1495.3582              1495.5458
 Red. masses --      1.0757                 1.0517                 1.0447
 Frc consts  --      1.4161                 1.3855                 1.3767
 IR Inten    --      9.5980                 2.9690                 0.0745

                     76                     77                     78
                      A                      A                      A
 Frequencies --   1501.0109              1503.9098              1511.1257
 Red. masses --      1.2636                 1.1766                 1.0551
 Frc consts  --      1.6774                 1.5679                 1.4196
 IR Inten    --      2.7558                35.1159                 0.1126

                     79                     80                     81
                      A                      A                      A
 Frequencies --   1512.3235              1517.6673              1517.9165
 Red. masses --      1.0548                 1.0789                 1.0815
 Frc consts  --      1.4213                 1.4642                 1.4681
 IR Inten    --     20.3645                 8.2216                10.0109

                     82                     83                     84
                      A                      A                      A
 Frequencies --   1527.7533              1529.9920              1660.1032
 Red. masses --      1.1554                 1.1246                 8.2050
 Frc consts  --      1.5889                 1.5511                13.3229
 IR Inten    --     64.2561                 5.6789               165.7908

                     85                     86                     87
                      A                      A                      A
 Frequencies --   1681.9694              3065.6586              3065.8174
 Red. masses --      6.2359                 1.0355                 1.0355
 Frc consts  --     10.3940                 5.7338                 5.7343
 IR Inten    --    161.6597                24.8976                62.0699

                     88                     89                     90
                      A                      A                      A
 Frequencies --   3068.1349              3068.2985              3075.3441
 Red. masses --      1.0360                 1.0360                 1.0383
 Frc consts  --      5.7459                 5.7466                 5.7859
 IR Inten    --     44.0973                15.9882                28.0930

                     91                     92                     93
                      A                      A                      A
 Frequencies --   3075.4860              3078.4827              3136.4826
 Red. masses --      1.0382                 1.0377                 1.1028
 Frc consts  --      5.7857                 5.7940                 6.3917
 IR Inten    --     67.1908                16.8008                 7.1462

                     94                     95                     96
                      A                      A                      A
 Frequencies --   3136.6473              3137.8309              3138.0472
 Red. masses --      1.1027                 1.1023                 1.1022
 Frc consts  --      6.3922                 6.3943                 6.3949
 IR Inten    --     21.9857                64.5275                27.2076

                     97                     98                     99
                      A                      A                      A
 Frequencies --   3144.8148              3145.7772              3146.2578
 Red. masses --      1.1000                 1.0996                 1.0996
 Frc consts  --      6.4096                 6.4113                 6.4130
 IR Inten    --     12.9828               135.1493                 2.5147

                    100                    101                    102
                      A                      A                      A
 Frequencies --   3149.6724              3149.7483              3151.0830
 Red. masses --      1.1024                 1.1024                 1.1017
 Frc consts  --      6.4436                 6.4438                 6.4451
 IR Inten    --      2.1118                13.8968                 1.1825

                    103                    104                    105
                      A                      A                      A
 Frequencies --   3151.2642              3162.2327              3162.6259
 Red. masses --      1.1016                 1.1023                 1.1022
 Frc consts  --      6.4454                 6.4942                 6.4954
 IR Inten    --    119.9992                 2.7959                68.5620

                    106                    107                    108
                      A                      A                      A
 Frequencies --   3165.9247              3206.1817              3210.4631
 Red. masses --      1.1037                 1.0913                 1.0915
 Frc consts  --      6.5179                 6.6095                 6.6285
 IR Inten    --     18.9311                 9.8911                 7.1824

 - Thermochemistry -
 -------------------
 Temperature   298.150 Kelvin.  Pressure   1.00000 Atm.
 Atom     1 has atomic number  6 and mass  12.00000

 Molecular mass:   205.18305 amu.
 Principal axes and moments of inertia in atomic units:
                           1         2         3
     Eigenvalues --  2280.063874091.553945570.40524
           X            1.00000   0.00015   0.00000
           Y           -0.00015   1.00000   0.00028
           Z            0.00000  -0.00028   1.00000
 This molecule is an asymmetric top.
 Rotational symmetry number  1.
 Warning -- assumption of classical behavior for rotation
           may cause significant error
 Rotational temperatures (Kelvin)      0.03799     0.02117     0.01555
 Rotational constants (GHZ):           0.79153     0.44109     0.32399
 Zero-point vibrational energy     903945.5 (Joules/Mol)
                                  216.04815 (Kcal/Mol)
 Warning -- explicit consideration of  29 degrees of freedom as
           vibrations may cause significant error
 Vibrational temperatures:     67.05    71.62    76.57   158.43   190.01
          (Kelvin)            204.27   295.61   325.32   329.53   343.82
                              382.44   415.11   424.17   436.72   447.51
                              462.01   471.84   488.47   511.29   512.31
                              562.68   575.94   592.60   649.97   769.71
                              778.59   833.62   835.49   843.51  1020.47
                             1150.12  1151.11  1214.79  1295.44  1345.24
                             1352.26  1374.81  1375.21  1378.93  1392.89
                             1398.87  1404.90  1405.63  1474.13  1490.11
                             1518.92  1523.22  1527.94  1531.01  1548.89
                             1674.63  1724.89  1788.55  1799.07  1801.02
                             1817.60  1821.44  1869.09  1895.05  1981.76
                             2034.19  2034.55  2040.74  2041.66  2063.30
                             2073.94  2078.89  2102.32  2143.68  2144.37
                             2146.59  2147.17  2150.66  2151.48  2151.75
                             2159.62  2163.79  2174.17  2175.89  2183.58
                             2183.94  2198.09  2201.31  2388.52  2419.98
                             4410.79  4411.02  4414.36  4414.59  4424.73
                             4424.93  4429.24  4512.69  4512.93  4514.63
                             4514.94  4524.68  4526.07  4526.76  4531.67
                             4531.78  4533.70  4533.96  4549.74  4550.31
                             4555.05  4612.97  4619.13

 Zero-point correction=                           0.344295 (Hartree/Particle)
 Thermal correction to Energy=                    0.361124
 Thermal correction to Enthalpy=                  0.362068
 Thermal correction to Gibbs Free Energy=         0.301196
 Sum of electronic and zero-point Energies=           -601.515992
 Sum of electronic and thermal Energies=              -601.499163
 Sum of electronic and thermal Enthalpies=            -601.498219
 Sum of electronic and thermal Free Energies=         -601.559091

                     E (Thermal)             CV                S
                      KCal/Mol        Cal/Mol-Kelvin    Cal/Mol-Kelvin
 Total                  226.609             65.502            128.116
 Electronic               0.000              0.000              0.000
 Translational            0.889              2.981             41.860
 Rotational               0.889              2.981             32.319
 Vibrational            224.831             59.541             53.936
 Vibration     1          0.595              1.979              4.957
 Vibration     2          0.595              1.978              4.826
 Vibration     3          0.596              1.976              4.694
 Vibration     4          0.606              1.941              3.267
 Vibration     5          0.612              1.921              2.916
 Vibration     6          0.615              1.911              2.777
 Vibration     7          0.640              1.832              2.084
 Vibration     8          0.650              1.801              1.910
 Vibration     9          0.652              1.797              1.887
 Vibration    10          0.657              1.781              1.811
 Vibration    11          0.672              1.736              1.623
 Vibration    12          0.685              1.695              1.483
 Vibration    13          0.689              1.683              1.446
 Vibration    14          0.695              1.667              1.397
 Vibration    15          0.700              1.653              1.357
 Vibration    16          0.707              1.633              1.304
 Vibration    17          0.711              1.620              1.270
 Vibration    18          0.719              1.597              1.214
 Vibration    19          0.731              1.564              1.142
 Vibration    20          0.732              1.563              1.139
 Vibration    21          0.759              1.489              0.996
 Vibration    22          0.766              1.469              0.962
 Vibration    23          0.776              1.444              0.920
 Vibration    24          0.810              1.357              0.790
 Vibration    25          0.890              1.173              0.576
 Vibration    26          0.896              1.159              0.563
 Vibration    27          0.936              1.076              0.486
 Vibration    28          0.937              1.073              0.484
 Vibration    29          0.943              1.061              0.474

 1\1\GINC-SMP-N121\Freq\RM062X\6-31+G(d)\C14H23N1\ELK72\03-May-2018\0\\
 #P Geom=AllCheck Guess=TCheck SCRF=Check GenChk RM062X/6-31+G(d) Freq\
 \2.g09\\0,1\C,-3.8996145769,1.6521991362,-0.5262365965\C,-4.9569394239
 ,0.7905808844,-0.8383479206\N,-4.8042649223,-0.5382627744,-0.830121574
 5\C,-3.613410683,-1.0672119984,-0.5163704368\C,-2.5177018657,-0.263596
 8452,-0.1947653137\C,-2.6526014158,1.1258905536,-0.1957748229\H,-4.043
 4588871,2.7297616979,-0.5406513313\C,-6.3323361843,1.3552702716,-1.203
 2916038\C,-3.4812642658,-2.592666588,-0.5211492388\H,-1.5587757502,-0.

 Normal termination of Gaussian 09 at Thu May  3 14:42:58 2018.
