 Gaussian 09, Revision D.01,
 Gaussian 09:  EM64L-G09RevD.01 24-Apr-2013

 ---------------------------------------------------------
 #p opt freq m062x/6-31+g(d) scrf=(smd,solvent=chloroform)
 ---------------------------------------------------------

 --
 3c
 --
 Symbolic Z-matrix:
 Charge =  0 Multiplicity = 1

 SCF Done:  E(RM062X) =  -1406.89442490     A.U. after   16 cycles
 SCF Done:  E(RM062X) =  -1406.89405309     A.U. after   15 cycles
 SCF Done:  E(RM062X) =  -1406.89443373     A.U. after   15 cycles
 SCF Done:  E(RM062X) =  -1406.89472291     A.U. after   13 cycles
 SCF Done:  E(RM062X) =  -1406.89486587     A.U. after   13 cycles
 SCF Done:  E(RM062X) =  -1406.89494093     A.U. after   15 cycles
 SCF Done:  E(RM062X) =  -1406.89536329     A.U. after   14 cycles
 SCF Done:  E(RM062X) =  -1406.89470774     A.U. after   15 cycles
 SCF Done:  E(RM062X) =  -1406.89558066     A.U. after   12 cycles
 SCF Done:  E(RM062X) =  -1406.89584031     A.U. after   13 cycles
 SCF Done:  E(RM062X) =  -1406.89690529     A.U. after   12 cycles
 SCF Done:  E(RM062X) =  -1406.89691534     A.U. after   11 cycles
 SCF Done:  E(RM062X) =  -1406.89691945     A.U. after   11 cycles
 SCF Done:  E(RM062X) =  -1406.89692350     A.U. after   12 cycles
 SCF Done:  E(RM062X) =  -1406.89692892     A.U. after   10 cycles
 SCF Done:  E(RM062X) =  -1406.89693736     A.U. after   11 cycles
 SCF Done:  E(RM062X) =  -1406.89694325     A.U. after   10 cycles
 SCF Done:  E(RM062X) =  -1406.89694581     A.U. after   10 cycles
 SCF Done:  E(RM062X) =  -1406.89694576     A.U. after    9 cycles
 Optimization completed.
    -- Stationary point found.
 Normal termination of Gaussian 09 at Tue Jul 10 19:17:00 2018.

 ---------------------------------------------------------------------
 #P Geom=AllCheck Guess=TCheck SCRF=Check GenChk RM062X/6-31+G(d) Freq
 ---------------------------------------------------------------------

 Structure from the checkpoint file:  "3c.chk"
 --
 3c
 --
 Charge =  0 Multiplicity = 1

                         Standard orientation:
 ---------------------------------------------------------------------
 Center     Atomic      Atomic             Coordinates (Angstroms)
 Number     Number       Type             X           Y           Z
 ---------------------------------------------------------------------
      1          6           0        4.714827    0.169542    0.414039
      2          6           0        4.698454    0.989689   -0.716945
      3          6           0        3.749401   -0.817807    0.569775
      4          6           0        2.761456   -0.987706   -0.411980
      5          6           0        2.745839   -0.167759   -1.543929
      6          6           0        3.716605    0.820101   -1.692172
      7          7           0       -1.778952    1.065457    0.009543
      8          6           0       -2.563068   -0.006993    0.142750
      9          6           0       -2.215178   -1.067582    0.987937
     10          6           0       -1.021531   -1.020989    1.701442
     11          6           0       -0.203896    0.100839    1.527144
     12          6           0       -0.619526    1.133015    0.683426
     13          1           0        5.478576    0.302482    1.174259
     14          1           0        5.452271    1.762744   -0.836184
     15          1           0        1.982825   -0.293807   -2.304277
     16          1           0        3.700893    1.459473   -2.569662
     17          1           0        3.750105   -1.459975    1.445273
     18          6           0       -3.862076   -0.058817   -0.665298
     19          1           0       -2.870570   -1.929855    1.087673
     20          6           0        0.168612    2.430528    0.494283
     21          6           0       -0.640512   -2.137064    2.636874
     22          1           0        0.737506    0.163761    2.065354
     23          6           0        1.768409   -2.061306   -0.166416
     24          8           0        1.767348   -2.811246    0.760602
     25         17           0        0.475559   -2.239001   -1.404283
     26          1           0       -1.353913   -2.197968    3.466937
     27          1           0        0.358834   -1.986972    3.054033
     28          1           0       -0.652677   -3.102138    2.120015
     29          6           0       -0.632513    3.572043    1.141802
     30          6           0        0.325135    2.717813   -1.006030
     31          6           0        1.555381    2.365630    1.138029
     32          6           0       -5.053259   -0.260988    0.285476
     33          6           0       -3.791991   -1.241470   -1.646542
     34          6           0       -4.077976    1.231109   -1.459562
     35          1           0       -3.656928   -2.194720   -1.123422
     36          1           0       -2.959987   -1.119674   -2.350202
     37          1           0       -4.721293   -1.304028   -2.225864
     38          1           0       -4.985680   -1.208933    0.830092
     39          1           0       -5.989360   -0.271830   -0.285674
     40          1           0       -5.112127    0.550390    1.020365
     41          1           0       -4.138809    2.104134   -0.801213
     42          1           0       -5.017019    1.157336   -2.020799
     43          1           0       -3.264348    1.406755   -2.170190
     44          1           0        1.497104    2.249416    2.226700
     45          1           0        2.097444    3.296410    0.934086
     46          1           0        2.149244    1.537375    0.733772
     47          1           0       -0.650728    2.837231   -1.485087
     48          1           0        0.854923    1.900977   -1.509796
     49          1           0        0.901405    3.639735   -1.151443
     50          1           0       -1.627005    3.653378    0.690685
     51          1           0       -0.110512    4.526664    1.002353
     52          1           0       -0.756332    3.405434    2.218793
 ---------------------------------------------------------------------

 SCF Done:  E(RM062X) =  -1406.89694576     A.U. after    1 cycles

 The electronic state is 1-A.
 Alpha  occ. eigenvalues -- -102.67446 -19.68191 -14.74774 -10.71276 -10.58921
 Alpha  occ. eigenvalues --  -10.58235 -10.58204 -10.57655 -10.57579 -10.57300
 Alpha  occ. eigenvalues --  -10.56827 -10.56791 -10.56776 -10.55417 -10.55389
 Alpha  occ. eigenvalues --  -10.54444 -10.54247 -10.53616 -10.52823 -10.52803
 Alpha  occ. eigenvalues --  -10.52636 -10.52583 -10.52327 -10.52107  -9.82123
 Alpha  occ. eigenvalues --   -7.54470  -7.53901  -7.53839  -1.22265  -1.04888
 Alpha  occ. eigenvalues --   -0.98605  -0.94890  -0.92996  -0.91316  -0.90000
 Alpha  occ. eigenvalues --   -0.87450  -0.86107  -0.82671  -0.79523  -0.77088
 Alpha  occ. eigenvalues --   -0.76948  -0.76672  -0.76309  -0.74212  -0.71139
 Alpha  occ. eigenvalues --   -0.70564  -0.68775  -0.65286  -0.61867  -0.60991
 Alpha  occ. eigenvalues --   -0.60201  -0.56707  -0.56528  -0.55900  -0.55688
 Alpha  occ. eigenvalues --   -0.53401  -0.52393  -0.52262  -0.52025  -0.51711
 Alpha  occ. eigenvalues --   -0.50691  -0.50392  -0.49883  -0.49256  -0.48551
 Alpha  occ. eigenvalues --   -0.48287  -0.46097  -0.45593  -0.45135  -0.44973
 Alpha  occ. eigenvalues --   -0.44602  -0.44062  -0.43476  -0.43470  -0.42394
 Alpha  occ. eigenvalues --   -0.42331  -0.41789  -0.41715  -0.41621  -0.40156
 Alpha  occ. eigenvalues --   -0.39160  -0.39028  -0.38409  -0.38284  -0.37638
 Alpha  occ. eigenvalues --   -0.37448  -0.36674  -0.36441  -0.32872  -0.32367
 Alpha  occ. eigenvalues --   -0.31796  -0.30749  -0.29069
 Alpha virt. eigenvalues --   -0.04659   0.00458   0.01083   0.01437   0.02192
 Alpha virt. eigenvalues --    0.02308   0.02530   0.02873   0.03522   0.03647
 Alpha virt. eigenvalues --    0.03915   0.04419   0.04504   0.05183   0.05343

 Mulliken charges:
               1
     1  C   -0.158108
     2  C   -0.291518
     3  C   -0.061289
     4  C    0.770323
     5  C   -0.820204
     6  C   -0.320412
     7  N   -0.073482
     8  C   -0.228755
     9  C    0.543519
    10  C   -0.843169
    11  C   -0.206026
    12  C   -0.605138
    13  H    0.247167
    14  H    0.246955
    15  H    0.263120
    16  H    0.250260
    17  H    0.269283
    18  C   -0.471425
    19  H    0.243449
    20  C   -0.683041
    21  C   -0.255610
    22  H    0.239884
    23  C   -0.266723
    24  O   -0.227570
    25  Cl   0.104974
    26  H    0.253335
    27  H    0.238327
    28  H    0.271031
    29  C   -0.400920
    30  C   -0.529871
    31  C   -0.522556
    32  C   -0.421849
    33  C   -0.383578
    34  C   -0.457769
    35  H    0.239630
    36  H    0.243147
    37  H    0.230188
    38  H    0.233500
    39  H    0.231023
    40  H    0.242295
    41  H    0.237567
    42  H    0.220611
    43  H    0.240455
    44  H    0.235984
    45  H    0.232747
    46  H    0.249132
    47  H    0.252996
    48  H    0.245814
    49  H    0.227703
    50  H    0.252394
    51  H    0.230913
    52  H    0.241286
 Sum of Mulliken charges =   0.00000

 Dipole moment (field-independent basis, Debye):
    X=              3.5625    Y=              1.5305    Z=              0.4482  Tot=              3.9032
 Quadrupole moment (field-independent basis, Debye-Ang):
   XX=           -134.4837   YY=           -161.9546   ZZ=           -150.0517
   XY=             14.1421   XZ=             -0.4875   YZ=             -3.4355

  Exact polarizability: 359.998  49.414 331.197  36.996 -35.024 301.833
 Approx polarizability: 329.468  41.358 323.121  39.173 -40.217 313.542

                      1                      2                      3
                      A                      A                      A
 Frequencies --     21.4455                22.4705                35.1520
 Red. masses --      3.3508                 3.6786                 5.7787
 Frc consts  --      0.0009                 0.0011                 0.0042
 IR Inten    --      0.0734                 0.0263                 1.3874

                      4                      5                      6
                      A                      A                      A
 Frequencies --     40.7471                46.1038                49.7856
 Red. masses --      7.1604                 3.9599                 7.9697
 Frc consts  --      0.0070                 0.0050                 0.0116
 IR Inten    --      1.1750                 0.2475                 0.2902

                      7                      8                      9
                      A                      A                      A
 Frequencies --     69.7805                74.3177                81.0058
 Red. masses --      3.5491                 4.8534                 3.8536
 Frc consts  --      0.0102                 0.0158                 0.0149
 IR Inten    --      0.1809                 0.6194                 0.2482

                     10                     11                     12
                      A                      A                      A
 Frequencies --    110.7282               126.0471               132.3790
 Red. masses --      2.6245                 1.2776                 3.1295
 Frc consts  --      0.0190                 0.0120                 0.0323
 IR Inten    --      3.2603                 1.8265                 0.2784

                     13                     14                     15
                      A                      A                      A
 Frequencies --    138.8862               169.9919               202.0316
 Red. masses --      3.0500                 4.9737                 7.1930
 Frc consts  --      0.0347                 0.0847                 0.1730
 IR Inten    --      0.1073                 1.0657                 0.5905

                     16                     17                     18
                      A                      A                      A
 Frequencies --    207.9325               216.4188               223.9424
 Red. masses --      1.6994                 1.2208                 1.6629
 Frc consts  --      0.0433                 0.0337                 0.0491
 IR Inten    --      1.8012                 0.8672                 0.0595

                     19                     20                     21
                      A                      A                      A
 Frequencies --    230.0284               268.8179               276.8125
 Red. masses --      1.7356                 2.1400                 1.4274
 Frc consts  --      0.0541                 0.0911                 0.0644
 IR Inten    --      0.5278                 0.0438                 0.2388

                     22                     23                     24
                      A                      A                      A
 Frequencies --    285.5716               298.1826               303.7957
 Red. masses --      1.3952                 1.6631                 1.1778
 Frc consts  --      0.0670                 0.0871                 0.0640
 IR Inten    --      0.2563                 0.1810                 0.2859

                     25                     26                     27
                      A                      A                      A
 Frequencies --    309.6279               318.7531               326.8624
 Red. masses --      1.7071                 1.1255                 7.9572
 Frc consts  --      0.0964                 0.0674                 0.5009
 IR Inten    --      0.1250                 0.2866                16.3967

                     28                     29                     30
                      A                      A                      A
 Frequencies --    333.2834               337.2085               367.3132
 Red. masses --      2.5361                 2.5283                 2.4144
 Frc consts  --      0.1660                 0.1694                 0.1919
 IR Inten    --      3.7951                 1.7956                 1.4126

                     31                     32                     33
                      A                      A                      A
 Frequencies --    387.9152               398.5108               408.7928
 Red. masses --      2.2737                 2.6497                 2.6375
 Frc consts  --      0.2016                 0.2479                 0.2597
 IR Inten    --      0.0122                 0.3091                 3.9677

                     34                     35                     36
                      A                      A                      A
 Frequencies --    412.8844               430.6263               437.5788
 Red. masses --      2.8835                 4.3006                 9.3523
 Frc consts  --      0.2896                 0.4699                 1.0551
 IR Inten    --      0.1553                 0.7278                 8.8559

                     37                     38                     39
                      A                      A                      A
 Frequencies --    443.1892               514.1377               529.5529
 Red. masses --      2.7044                10.4965                 3.4666
 Frc consts  --      0.3130                 1.6348                 0.5728
 IR Inten    --      0.1250                 6.7618                 1.9572

                     40                     41                     42
                      A                      A                      A
 Frequencies --    537.8223               574.0417               576.7559
 Red. masses --      4.1403                 2.8245                 3.4755
 Frc consts  --      0.7056                 0.5484                 0.6812
 IR Inten    --      3.5560                 1.4114                 3.0645

                     43                     44                     45
                      A                      A                      A
 Frequencies --    577.8410               627.8293               660.4705
 Red. masses --      3.1621                 6.4749                 5.2282
 Frc consts  --      0.6221                 1.5037                 1.3437
 IR Inten    --      2.1500                 2.8376                43.9433

                     46                     47                     48
                      A                      A                      A
 Frequencies --    687.4944               701.7844               709.2758
 Red. masses --      7.6606                 1.9292                 4.3606
 Frc consts  --      2.1333                 0.5598                 1.2925
 IR Inten    --    137.6004                84.7911                 0.7931

                     49                     50                     51
                      A                      A                      A
 Frequencies --    798.3918               799.7119               803.1730
 Red. masses --      3.1507                 3.2477                 1.8120
 Frc consts  --      1.1833                 1.2237                 0.6887
 IR Inten    --      1.7907                 1.6982                47.4306

                     52                     53                     54
                      A                      A                      A
 Frequencies --    839.7276               883.1662               888.6527
 Red. masses --      2.7874                 1.2561                 1.6070
 Frc consts  --      1.1580                 0.5773                 0.7477
 IR Inten    --      0.0026                 1.1425                37.3326

                     55                     56                     57
                      A                      A                      A
 Frequencies --    894.7541               922.2288               933.2520
 Red. masses --      7.3726                 1.4187                 2.4287
 Frc consts  --      3.4776                 0.7109                 1.2463
 IR Inten    --    322.3696                 0.8314                15.2832

                     58                     59                     60
                      A                      A                      A
 Frequencies --    946.5033               953.2172               955.5141
 Red. masses --      1.5189                 1.5859                 2.3088
 Frc consts  --      0.8017                 0.8490                 1.2420
 IR Inten    --      1.2266                 1.3076                 4.8022

                     61                     62                     63
                      A                      A                      A
 Frequencies --    959.8537               960.9626               964.2393
 Red. masses --      1.5289                 1.2465                 1.5585
 Frc consts  --      0.8299                 0.6782                 0.8537
 IR Inten    --      2.1012                 0.6334                 8.9121

                     64                     65                     66
                      A                      A                      A
 Frequencies --    964.8550               982.9055              1019.3457
 Red. masses --      1.5344                 1.3674                 5.8455
 Frc consts  --      0.8416                 0.7784                 3.5786
 IR Inten    --      9.4004                 3.1467                 1.2601

                     67                     68                     69
                      A                      A                      A
 Frequencies --   1020.8994              1024.9506              1035.8162
 Red. masses --      6.9192                 1.3741                 1.4236
 Frc consts  --      4.2489                 0.8505                 0.8999
 IR Inten    --      3.9454                 0.0255                 3.9029

                     70                     71                     72
                      A                      A                      A
 Frequencies --   1045.6064              1047.5794              1047.9097
 Red. masses --      1.4146                 1.3821                 1.3376
 Frc consts  --      0.9112                 0.8936                 0.8654
 IR Inten    --      0.6926                 0.2648                 0.1030

                     73                     74                     75
                      A                      A                      A
 Frequencies --   1055.0128              1056.2422              1071.2624
 Red. masses --      1.3939                 1.3947                 1.5624
 Frc consts  --      0.9141                 0.9168                 1.0564
 IR Inten    --      0.0883                 0.5019                10.6606

                     76                     77                     78
                      A                      A                      A
 Frequencies --   1072.3576              1133.9141              1164.7939
 Red. masses --      2.1518                 1.4905                 1.5738
 Frc consts  --      1.4579                 1.1291                 1.2580
 IR Inten    --      1.5667                 5.7690                 4.9268

                     79                     80                     81
                      A                      A                      A
 Frequencies --   1195.9482              1204.5619              1210.3986
 Red. masses --      1.1143                 1.8134                 1.2188
 Frc consts  --      0.9390                 1.5502                 1.0521
 IR Inten    --      1.3181                13.2590                91.6642

                     82                     83                     84
                      A                      A                      A
 Frequencies --   1245.4387              1245.9953              1247.5068
 Red. masses --      2.5170                 2.9761                 2.4540
 Frc consts  --      2.3002                 2.7223                 2.2502
 IR Inten    --    102.5213               138.2818                 6.1708

                     85                     86                     87
                      A                      A                      A
 Frequencies --   1249.5783              1257.9357              1270.1229
 Red. masses --      2.8562                 2.9373                 2.9258
 Frc consts  --      2.6277                 2.7386                 2.7809
 IR Inten    --      2.1068                 5.7827                17.2459

                     88                     89                     90
                      A                      A                      A
 Frequencies --   1298.6975              1311.9141              1356.1651
 Red. masses --      2.2196                 5.7104                 1.6495
 Frc consts  --      2.2057                 5.7907                 1.7874
 IR Inten    --     21.3973                 1.3167                 2.7917

                     91                     92                     93
                      A                      A                      A
 Frequencies --   1374.1324              1376.4630              1401.9838
 Red. masses --      3.4523                 3.5981                 1.2670
 Frc consts  --      3.8408                 4.0165                 1.4673
 IR Inten    --     15.1679                 0.6852                10.3093

                     94                     95                     96
                      A                      A                      A
 Frequencies --   1405.8776              1408.0489              1410.2105
 Red. masses --      1.2861                 1.2678                 1.2931
 Frc consts  --      1.4977                 1.4810                 1.5151
 IR Inten    --     20.8483                 8.2817                10.8876

                     97                     98                     99
                      A                      A                      A
 Frequencies --   1430.9956              1432.5714              1437.8432
 Red. masses --      1.2823                 1.2729                 1.3172
 Frc consts  --      1.5471                 1.5391                 1.6045
 IR Inten    --      6.9915                 0.7770                 1.1102

                    100                    101                    102
                      A                      A                      A
 Frequencies --   1459.4827              1485.0262              1488.5010
 Red. masses --      2.2710                 1.6634                 1.0499
 Frc consts  --      2.8501                 2.1613                 1.3706
 IR Inten    --     15.0704                 4.5398                 0.2127

                    103                    104                    105
                      A                      A                      A
 Frequencies --   1489.3393              1490.8491              1493.4059
 Red. masses --      1.0578                 1.0446                 1.2372
 Frc consts  --      1.3824                 1.3679                 1.6257
 IR Inten    --      0.3019                15.2259                 2.9449

                    106                    107                    108
                      A                      A                      A
 Frequencies --   1497.5844              1498.8149              1502.3907
 Red. masses --      1.0937                 1.0528                 1.1283
 Frc consts  --      1.4452                 1.3935                 1.5006
 IR Inten    --      2.5621                 0.7316                 3.6552

                    109                    110                    111
                      A                      A                      A
 Frequencies --   1505.6058              1507.7862              1508.9533
 Red. masses --      1.1794                 2.2005                 1.0659
 Frc consts  --      1.5752                 2.9475                 1.4300
 IR Inten    --     46.5435                32.1949                12.2807

                    112                    113                    114
                      A                      A                      A
 Frequencies --   1509.6582              1513.2054              1517.0609
 Red. masses --      1.1561                 1.0868                 1.0716
 Frc consts  --      1.5524                 1.4662                 1.4531
 IR Inten    --      8.3171                 6.1389                 8.6398

                    115                    116                    117
                      A                      A                      A
 Frequencies --   1528.4057              1530.3657              1549.9884
 Red. masses --      1.1185                 1.1087                 2.2668
 Frc consts  --      1.5394                 1.5298                 3.2086
 IR Inten    --     26.7390                38.4983                 0.8146

                    118                    119                    120
                      A                      A                      A
 Frequencies --   1653.5546              1672.2452              1680.1212
 Red. masses --      7.9448                 5.9061                 6.2832
 Frc consts  --     12.7988                 9.7309                10.4498
 IR Inten    --    151.8336                10.9617               153.9817

                    121                    122                    123
                      A                      A                      A
 Frequencies --   1686.1573              1874.4449              3059.6185
 Red. masses --      5.8880                13.1761                 1.0351
 Frc consts  --      9.8632                27.2761                 5.7089
 IR Inten    --     47.0809               506.1842                39.3973

                    124                    125                    126
                      A                      A                      A
 Frequencies --   3060.2325              3064.4122              3066.4634
 Red. masses --      1.0359                 1.0357                 1.0370
 Frc consts  --      5.7160                 5.7304                 5.7451
 IR Inten    --     39.7233                36.4571                34.2238

                    127                    128                    129
                      A                      A                      A
 Frequencies --   3070.6864              3070.9296              3076.3276
 Red. masses --      1.0370                 1.0378                 1.0382
 Frc consts  --      5.7611                 5.7662                 5.7891
 IR Inten    --     31.2017                48.2220                15.8139

                    130                    131                    132
                      A                      A                      A
 Frequencies --   3129.9728              3133.6015              3134.4506
 Red. masses --      1.1025                 1.1025                 1.1025
 Frc consts  --      6.3640                 6.3787                 6.3821
 IR Inten    --     27.9812                26.0136                16.8185

                    133                    134                    135
                      A                      A                      A
 Frequencies --   3136.1077              3138.2740              3139.1857
 Red. masses --      1.1018                 1.1026                 1.1008
 Frc consts  --      6.3848                 6.3983                 6.3911
 IR Inten    --     29.2717                28.2948                54.9691

                    136                    137                    138
                      A                      A                      A
 Frequencies --   3140.5659              3140.9173              3145.0058
 Red. masses --      1.1012                 1.1006                 1.1018
 Frc consts  --      6.3991                 6.3971                 6.4210
 IR Inten    --     95.0454                11.6757                38.3350

                    139                    140                    141
                      A                      A                      A
 Frequencies --   3151.3062              3151.4838              3152.8171
 Red. masses --      1.1006                 1.1016                 1.1025
 Frc consts  --      6.4398                 6.4461                 6.4567
 IR Inten    --     31.4686                16.7812                34.5567

                    142                    143                    144
                      A                      A                      A
 Frequencies --   3165.8474              3169.6829              3203.8246
 Red. masses --      1.1008                 1.1022                 1.0917
 Frc consts  --      6.5003                 6.5242                 6.6025
 IR Inten    --     26.2898                19.2406                 8.1682

                    145                    146                    147
                      A                      A                      A
 Frequencies --   3225.9395              3234.6511              3243.4177
 Red. masses --      1.0911                 1.0878                 1.0905
 Frc consts  --      6.6899                 6.7058                 6.7591
 IR Inten    --      4.2324                 0.3968                 4.8721

                    148                    149                    150
                      A                      A                      A
 Frequencies --   3250.0525              3258.0544              3264.9537
 Red. masses --      1.0940                 1.0977                 1.0950
 Frc consts  --      6.8085                 6.8654                 6.8771
 IR Inten    --      2.8043                 6.9552                 1.2875

 - Thermochemistry -
 -------------------
 Temperature   298.150 Kelvin.  Pressure   1.00000 Atm.
 Atom     1 has atomic number  6 and mass  12.00000

 Molecular mass:   345.18594 amu.
 Principal axes and moments of inertia in atomic units:
                           1         2         3
     Eigenvalues --  5631.07724********************
           X            0.99971   0.02136   0.01129
           Y           -0.02098   0.99925  -0.03247
           Z           -0.01198   0.03222   0.99941
 This molecule is an asymmetric top.
 Rotational symmetry number  1.
 Warning -- assumption of classical behavior for rotation
           may cause significant error
 Rotational temperatures (Kelvin)      0.01538     0.00791     0.00673
 Rotational constants (GHZ):           0.32050     0.16487     0.14020
 Zero-point vibrational energy    1172835.9 (Joules/Mol)
                                  280.31450 (Kcal/Mol)
 Warning -- explicit consideration of  43 degrees of freedom as
           vibrations may cause significant error
 Vibrational temperatures:     30.86    32.33    50.58    58.63    66.33
          (Kelvin)             71.63   100.40   106.93   116.55   159.31
                              181.35   190.46   199.83   244.58   290.68
                              299.17   311.38   322.20   330.96   386.77
                              398.27   410.87   429.02   437.09   445.48
                              458.61   470.28   479.52   485.17   528.48
                              558.12   573.37   588.16   594.05   619.57
                              629.58   637.65   739.73   761.91   773.81
                              825.92   829.82   831.38   903.31   950.27
                              989.15  1009.71  1020.49  1148.71  1150.61
                             1155.59  1208.18  1270.68  1278.57  1287.35
                             1326.88  1342.74  1361.81  1371.47  1374.77
                             1381.01  1382.61  1387.32  1388.21  1414.18
                             1466.61  1468.84  1474.67  1490.31  1504.39
                             1507.23  1507.71  1517.93  1519.70  1541.31
                             1542.88  1631.45  1675.88  1720.70  1733.09
                             1741.49  1791.91  1792.71  1794.88  1797.86
                             1809.89  1827.42  1868.53  1887.55  1951.22
                             1977.07  1980.42  2017.14  2022.74  2025.87
                             2028.98  2058.88  2061.15  2068.73  2099.87
                             2136.62  2141.62  2142.82  2145.00  2148.68
                             2154.69  2156.46  2161.60  2166.23  2169.37
                             2171.04  2172.06  2177.16  2182.71  2199.03
                             2201.85  2230.08  2379.09  2405.98  2417.32
                             2426.00  2696.90  4402.10  4402.99  4409.00
                             4411.95  4418.03  4418.38  4426.14  4503.33
                             4508.55  4509.77  4512.15  4515.27  4516.58
                             4518.57  4519.07  4524.96  4534.02  4534.28
                             4536.19  4554.94  4560.46  4609.58  4641.40
                             4653.94  4666.55  4676.09  4687.61  4697.53

 Zero-point correction=                           0.446710 (Hartree/Particle)
 Thermal correction to Energy=                    0.473010
 Thermal correction to Enthalpy=                  0.473954
 Thermal correction to Gibbs Free Energy=         0.389039
 Sum of electronic and zero-point Energies=          -1406.450236
 Sum of electronic and thermal Energies=             -1406.423936
 Sum of electronic and thermal Enthalpies=           -1406.422992
 Sum of electronic and thermal Free Energies=        -1406.507907

                     E (Thermal)             CV                S
                      KCal/Mol        Cal/Mol-Kelvin    Cal/Mol-Kelvin
 Total                  296.818             98.794            178.718
 Electronic               0.000              0.000              0.000
 Translational            0.889              2.981             43.411
 Rotational               0.889              2.981             35.027
 Vibrational            295.041             92.833            100.279
 Vibration     1          0.593              1.985              6.496
 Vibration     2          0.593              1.985              6.403
 Vibration     3          0.594              1.982              5.515
 Vibration     4          0.594              1.981              5.222
 Vibration     5          0.595              1.979              4.978
 Vibration     6          0.595              1.978              4.826
 Vibration     7          0.598              1.969              4.160
 Vibration     8          0.599              1.966              4.036
 Vibration     9          0.600              1.962              3.866
 Vibration    10          0.607              1.941              3.256
 Vibration    11          0.611              1.927              3.005
 Vibration    12          0.612              1.921              2.911
 Vibration    13          0.614              1.914              2.819
 Vibration    14          0.625              1.879              2.436
 Vibration    15          0.639              1.837              2.115
 Vibration    16          0.641              1.829              2.062
 Vibration    17          0.645              1.816              1.989
 Vibration    18          0.649              1.805              1.927
 Vibration    19          0.652              1.795              1.879
 Vibration    20          0.673              1.731              1.604
 Vibration    21          0.678              1.716              1.553
 Vibration    22          0.683              1.700              1.500
 Vibration    23          0.691              1.677              1.427
 Vibration    24          0.695              1.667              1.396
 Vibration    25          0.699              1.655              1.364
 Vibration    26          0.705              1.638              1.316
 Vibration    27          0.711              1.622              1.276
 Vibration    28          0.715              1.609              1.244
 Vibration    29          0.718              1.601              1.225
 Vibration    30          0.740              1.539              1.091
 Vibration    31          0.756              1.496              1.008
 Vibration    32          0.765              1.473              0.968
 Vibration    33          0.773              1.451              0.931
 Vibration    34          0.777              1.442              0.916
 Vibration    35          0.792              1.404              0.857
 Vibration    36          0.798              1.388              0.834
 Vibration    37          0.803              1.376              0.817
 Vibration    38          0.869              1.219              0.624
 Vibration    39          0.885              1.185              0.588
 Vibration    40          0.893              1.166              0.570
 Vibration    41          0.930              1.087              0.497
 Vibration    42          0.933              1.082              0.491
 Vibration    43          0.934              1.079              0.489

 Normal termination of Gaussian 09 at Tue Jul 10 20:11:10 2018.
