 Gaussian 09, Revision D.01,
 Gaussian 09:  EM64L-G09RevD.01 24-Apr-2013

 ---------------------------------------------------------
 #p opt freq m062x/6-31+g(d) scrf=(smd,solvent=chloroform)
 ---------------------------------------------------------

 -----
 1.g09
 -----
 Symbolic Z-matrix:
 Charge =  0 Multiplicity = 1

 SCF Done:  E(RM062X) =  -805.021672298     A.U. after   15 cycles
 SCF Done:  E(RM062X) =  -805.026962089     A.U. after   13 cycles
 SCF Done:  E(RM062X) =  -805.027706259     A.U. after   12 cycles
 SCF Done:  E(RM062X) =  -805.027861389     A.U. after   12 cycles
 SCF Done:  E(RM062X) =  -805.027370754     A.U. after   12 cycles
 SCF Done:  E(RM062X) =  -805.027870084     A.U. after    8 cycles
 SCF Done:  E(RM062X) =  -805.027877936     A.U. after   11 cycles
 SCF Done:  E(RM062X) =  -805.027880520     A.U. after    9 cycles
 Optimization completed.
    -- Stationary point found.

 1\1\GINC-SMP-N31\FOpt\RM062X\6-31+G(d)\C7H5Cl1O1\ELK72\02-May-2018\0\\
 #p opt freq m062x/6-31+g(d) scrf=(smd,solvent=chloroform)\\1.g09\\0,1\
 C,-2.3898810045,0.7677406689,-0.0802778268\C,-3.550961563,0.0006266105
 ,-0.0410751473\C,-3.4701848971,-1.3895178851,0.0328388496\C,-2.2256056
 425,-2.0214293532,0.0680261185\C,-1.143565184,0.134604307,-0.045025583
 2\C,-1.0616936351,-1.2633838124,0.0293066824\H,-2.4589724078,1.8486548
 107,-0.1377554509\H,-4.5192669841,0.4908504403,-0.0683753844\H,-4.3795
 735134,-1.9831605151,0.0631618492\H,-2.1632972078,-3.1040587699,0.1255

 Normal termination of Gaussian 09 at Wed May  2 18:58:01 2018.

 ---------------------------------------------------------------------
 #P Geom=AllCheck Guess=TCheck SCRF=Check GenChk RM062X/6-31+G(d) Freq
 ---------------------------------------------------------------------

 Structure from the checkpoint file:  "1.chk"
 -----
 1.g09
 -----
 Charge =  0 Multiplicity = 1

                         Standard orientation:
 ---------------------------------------------------------------------
 Center     Atomic      Atomic             Coordinates (Angstroms)
 Number     Number       Type             X           Y           Z
 ---------------------------------------------------------------------
      1          6           0        0.570022   -1.134275    0.000037
      2          6           0        1.935166   -1.407206   -0.000007
      3          6           0        2.858641   -0.362369   -0.000035
      4          6           0        2.421307    0.963627   -0.000018
      5          6           0        0.132320    0.193815    0.000051
      6          6           0        1.060552    1.244997    0.000023
      7          1           0       -0.143572   -1.951120    0.000061
      8          1           0        2.276418   -2.437850   -0.000018
      9          1           0        3.922791   -0.581239   -0.000069
     10          1           0        3.140925    1.776912   -0.000038
     11          1           0        0.706169    2.271121    0.000035
     12          6           0       -1.297314    0.583633    0.000086
     13          8           0       -1.722039    1.696997   -0.000046
     14         17           0       -2.482976   -0.773361   -0.000025
 ---------------------------------------------------------------------

 SCF Done:  E(RM062X) =  -805.027880520     A.U. after    1 cycles

 The electronic state is 1-A.
 Alpha  occ. eigenvalues -- -102.67444 -19.68462 -10.71479 -10.59047 -10.57779
 Alpha  occ. eigenvalues --  -10.57650 -10.57367 -10.56860 -10.56851  -9.82241
 Alpha  occ. eigenvalues --   -7.54582  -7.54019  -7.53949  -1.22531  -0.98708
 Alpha  occ. eigenvalues --   -0.95100  -0.87575  -0.86187  -0.74360  -0.70656
 Alpha  occ. eigenvalues --   -0.65389  -0.61143  -0.56686  -0.55902  -0.53194
 Alpha  occ. eigenvalues --   -0.52316  -0.51825  -0.50456  -0.45136  -0.43544
 Alpha  occ. eigenvalues --   -0.41876  -0.39405  -0.39333  -0.36872  -0.32897
 Alpha  occ. eigenvalues --   -0.32460
 Alpha virt. eigenvalues --   -0.04733   0.00693   0.01461   0.03211   0.03853
 Alpha virt. eigenvalues --    0.04796   0.05228   0.05397   0.06205   0.06266
 Alpha virt. eigenvalues --    0.06999   0.08424   0.08980   0.09293   0.09297

 Mulliken charges:
               1
     1  C   -0.677031
     2  C   -0.603990
     3  C   -0.212077
     4  C   -0.394615
     5  C    0.921926
     6  C    0.216033
     7  H    0.257405
     8  H    0.247706
     9  H    0.247378
    10  H    0.248226
    11  H    0.266936
    12  C   -0.275792
    13  O   -0.326911
    14  Cl   0.084807
 Sum of Mulliken charges =   0.00000

 Dipole moment (field-independent basis, Debye):
    X=              4.7669    Y=             -1.5159    Z=              0.0002  Tot=              5.0021
 Quadrupole moment (field-independent basis, Debye-Ang):
   XX=            -56.7455   YY=            -55.9041   ZZ=            -61.7355
   XY=              3.0866   XZ=             -0.0006   YZ=              0.0003

  Exact polarizability: 159.285   2.080 133.728  -0.001   0.000  61.607
 Approx polarizability: 145.133   0.818 142.872  -0.001   0.000  64.873

                      1                      2                      3
                      A                      A                      A
 Frequencies --     40.0336               155.2061               198.4596
 Red. masses --      6.3286                 5.2173                 7.7637
 Frc consts  --      0.0060                 0.0740                 0.1802
 IR Inten    --      0.4351                 0.3646                 1.2474

                      4                      5                      6
                      A                      A                      A
 Frequencies --    323.3196               408.8564               427.6098
 Red. masses --      8.4371                 2.8804                 3.7153
 Frc consts  --      0.5196                 0.2837                 0.4003
 IR Inten    --     18.6194                 0.0123                 0.4850

                      7                      8                      9
                      A                      A                      A
 Frequencies --    432.4801               514.3293               625.0787
 Red. masses --     12.0303                10.7202                 6.4296
 Frc consts  --      1.3257                 1.6708                 1.4801
 IR Inten    --     12.2389                11.4593                 3.0063

                     10                     11                     12
                      A                      A                      A
 Frequencies --    662.1038               683.5275               692.5615
 Red. masses --      5.0792                 7.6187                 1.9415
 Frc consts  --      1.3119                 2.0972                 0.5486
 IR Inten    --     30.3207               164.5103                78.0957

                     13                     14                     15
                      A                      A                      A
 Frequencies --    794.4860               871.4740               891.1374
 Red. masses --      1.8254                 1.2525                 7.4702
 Frc consts  --      0.6789                 0.5605                 3.4952
 IR Inten    --     47.8202                 0.0255               378.8665

                     16                     17                     18
                      A                      A                      A
 Frequencies --    976.1637              1017.7731              1019.8653
 Red. masses --      1.3595                 1.3801                 5.6693
 Frc consts  --      0.7633                 0.8423                 3.4743
 IR Inten    --      2.1740                 0.2006                 1.8577

                     19                     20                     21
                      A                      A                      A
 Frequencies --   1042.2382              1066.0057              1127.5342
 Red. masses --      1.3169                 2.1236                 1.4737
 Frc consts  --      0.8429                 1.4218                 1.1039
 IR Inten    --      0.0002                 2.0617                 6.0878

                     22                     23                     24
                      A                      A                      A
 Frequencies --   1185.4711              1205.0430              1240.5162
 Red. masses --      1.1029                 1.1855                 3.4628
 Frc consts  --      0.9132                 1.0143                 3.1397
 IR Inten    --      2.7191                75.8322               282.5856

                     25                     26                     27
                      A                      A                      A
 Frequencies --   1347.9047              1368.3695              1500.6182
 Red. masses --      1.5686                 3.8767                 2.3801
 Frc consts  --      1.6791                 4.2768                 3.1578
 IR Inten    --      1.1068                15.4167                33.3034

                     28                     29                     30
                      A                      A                      A
 Frequencies --   1541.1886              1670.3081              1684.5095
 Red. masses --      2.3019                 6.0473                 6.0216
 Frc consts  --      3.2214                 9.9404                10.0672
 IR Inten    --      1.6132                14.6831                49.2299

                     31                     32                     33
                      A                      A                      A
 Frequencies --   1879.4743              3222.4418              3233.5187
 Red. masses --     13.2164                 1.0884                 1.0911
 Frc consts  --     27.5066                 6.6593                 6.7214
 IR Inten    --    603.6914                 0.7844                 4.5470

                     34                     35                     36
                      A                      A                      A
 Frequencies --   3242.6994              3247.2361              3253.7431
 Red. masses --      1.0936                 1.0955                 1.0960
 Frc consts  --      6.7752                 6.8057                 6.8363
 IR Inten    --      5.5182                 3.8903                 2.3628

 - Thermochemistry -
 -------------------
 Temperature   298.150 Kelvin.  Pressure   1.00000 Atm.
 Atom     1 has atomic number  6 and mass  12.00000

 Molecular mass:   140.00289 amu.
 Principal axes and moments of inertia in atomic units:
                           1         2         3
     Eigenvalues --   573.403381943.801322517.20470
           X            0.99998  -0.00587   0.00000
           Y            0.00587   0.99998   0.00000
           Z            0.00000   0.00000   1.00000
 This molecule is an asymmetric top.
 Rotational symmetry number  1.
 Warning -- assumption of classical behavior for rotation
           may cause significant error
 Rotational temperatures (Kelvin)      0.15105     0.04456     0.03441
 Rotational constants (GHZ):           3.14742     0.92846     0.71696
 Zero-point vibrational energy     267923.3 (Joules/Mol)
                                   64.03522 (Kcal/Mol)
 Warning -- explicit consideration of   8 degrees of freedom as
           vibrations may cause significant error
 Vibrational temperatures:     57.60   223.31   285.54   465.18   588.25
          (Kelvin)            615.23   622.24   740.00   899.35   952.62
                              983.44   996.44  1143.09  1253.86  1282.15
                             1404.48  1464.35  1467.36  1499.55  1533.74
                             1622.27  1705.63  1733.79  1784.82  1939.33
                             1968.78  2159.05  2217.42  2403.20  2423.63
                             2704.14  4636.37  4652.31  4665.52  4672.04
                             4681.40

 Zero-point correction=                           0.102047 (Hartree/Particle)
 Thermal correction to Energy=                    0.109380
 Thermal correction to Enthalpy=                  0.110324
 Thermal correction to Gibbs Free Energy=         0.068839
 Sum of electronic and zero-point Energies=           -804.925834
 Sum of electronic and thermal Energies=              -804.918501
 Sum of electronic and thermal Enthalpies=            -804.917556
 Sum of electronic and thermal Free Energies=         -804.959042

                     E (Thermal)             CV                S
                      KCal/Mol        Cal/Mol-Kelvin    Cal/Mol-Kelvin
 Total                   68.637             27.186             87.313
 Electronic               0.000              0.000              0.000
 Translational            0.889              2.981             40.721
 Rotational               0.889              2.981             29.419
 Vibrational             66.859             21.224             17.173
 Vibration     1          0.594              1.981              5.257
 Vibration     2          0.620              1.897              2.607
 Vibration     3          0.637              1.842              2.147
 Vibration     4          0.708              1.629              1.293
 Vibration     5          0.773              1.451              0.931
 Vibration     6          0.789              1.410              0.867
 Vibration     7          0.793              1.399              0.851
 Vibration     8          0.869              1.218              0.623

 Optimization completed.
    -- Stationary point found.

 1\1\GINC-SMP-N31\Freq\RM062X\6-31+G(d)\C7H5Cl1O1\ELK72\02-May-2018\0\\
 #P Geom=AllCheck Guess=TCheck SCRF=Check GenChk RM062X/6-31+G(d) Freq\
 \1.g09\\0,1\C,-2.3898810045,0.7677406689,-0.0802778268\C,-3.550961563,
 0.0006266105,-0.0410751473\C,-3.4701848971,-1.3895178851,0.0328388496\
 C,-2.2256056425,-2.0214293532,0.0680261185\C,-1.143565184,0.134604307,
 -0.0450255832\C,-1.0616936351,-1.2633838124,0.0293066824\H,-2.45897240
 78,1.8486548107,-0.1377554509\H,-4.5192669841,0.4908504403,-0.06837538
 44\H,-4.3795735134,-1.9831605151,0.0631618492\H,-2.1632972078,-3.10405

 Normal termination of Gaussian 09 at Wed May  2 19:00:49 2018.
