 Gaussian 09, Revision D.01,
 Gaussian 09:  EM64L-G09RevD.01 24-Apr-2013

 ---------------------------------------------------------
 #p opt freq m062x/6-31+g(d) scrf=(smd,solvent=chloroform)
 ---------------------------------------------------------

 ---------------------------------------------------------------------
 Initial structure is that optimized at constrained bond length of 2.8
 ---------------------------------------------------------------------
 Symbolic Z-matrix:
 Charge =  0 Multiplicity = 1

 SCF Done:  E(RM062X) =  -1406.88852191     A.U. after   16 cycles
 SCF Done:  E(RM062X) =  -1406.88872201     A.U. after   16 cycles
 SCF Done:  E(RM062X) =  -1406.89086600     A.U. after   14 cycles
 SCF Done:  E(RM062X) =  -1406.89092029     A.U. after   16 cycles
 SCF Done:  E(RM062X) =  -1406.88885108     A.U. after   17 cycles
 SCF Done:  E(RM062X) =  -1406.89109716     A.U. after   12 cycles
 SCF Done:  E(RM062X) =  -1406.89108276     A.U. after   14 cycles
 SCF Done:  E(RM062X) =  -1406.89121865     A.U. after   14 cycles
 SCF Done:  E(RM062X) =  -1406.89063686     A.U. after   16 cycles
 SCF Done:  E(RM062X) =  -1406.89127130     A.U. after   16 cycles
 SCF Done:  E(RM062X) =  -1406.89160140     A.U. after   12 cycles
 SCF Done:  E(RM062X) =  -1406.89160846     A.U. after   12 cycles
 SCF Done:  E(RM062X) =  -1406.89161399     A.U. after   12 cycles
 SCF Done:  E(RM062X) =  -1406.89161642     A.U. after   11 cycles
 SCF Done:  E(RM062X) =  -1406.89161632     A.U. after   11 cycles
 SCF Done:  E(RM062X) =  -1406.89161650     A.U. after   10 cycles
 SCF Done:  E(RM062X) =  -1406.89161654     A.U. after   10 cycles
 SCF Done:  E(RM062X) =  -1406.89161665     A.U. after   10 cycles
 SCF Done:  E(RM062X) =  -1406.89161682     A.U. after    9 cycles
 Optimization completed.
    -- Stationary point found.
 Normal termination of Gaussian 09 at Tue May  8 06:28:07 2018.

 ---------------------------------------------------------------------
 #P Geom=AllCheck Guess=TCheck SCRF=Check GenChk RM062X/6-31+G(d) Freq
 ---------------------------------------------------------------------

 Structure from the checkpoint file:  "3.chk"
 ---------------------------------------------------------------------
 Initial structure is that optimized at constrained bond length of 2.8
 ---------------------------------------------------------------------
 Charge =  0 Multiplicity = 1

                         Standard orientation:
 ---------------------------------------------------------------------
 Center     Atomic      Atomic             Coordinates (Angstroms)
 Number     Number       Type             X           Y           Z
 ---------------------------------------------------------------------
      1          6           0       -5.798466   -0.429404    0.307992
      2          6           0       -5.676841    0.512528   -0.715879
      3          6           0       -4.693847   -1.177498    0.697379
      4          6           0       -3.458826   -0.976344    0.064583
      5          6           0       -3.338125   -0.035971   -0.963380
      6          6           0       -4.450491    0.705787   -1.351386
      7          7           0        1.938754    0.627017   -0.575304
      8          6           0        1.325625    1.414582    0.318133
      9          6           0        1.564439    1.289354    1.688517
     10          6           0        2.442199    0.308182    2.151745
     11          6           0        3.057872   -0.507352    1.203907
     12          6           0        2.788352   -0.317163   -0.155332
     13          1           0       -6.753843   -0.579335    0.801742
     14          1           0       -6.541232    1.097207   -1.017865
     15          1           0       -2.385898    0.118258   -1.459249
     16          1           0       -4.356055    1.436274   -2.149191
     17          1           0       -4.773727   -1.912861    1.492088
     18          6           0        0.372300    2.484358   -0.220767
     19          1           0        1.073925    1.948522    2.400240
     20          6           0        3.475959   -1.184654   -1.212806
     21          6           0        2.689451    0.118217    3.624391
     22          1           0        3.749315   -1.282124    1.526600
     23          6           0       -2.328205   -1.806348    0.547505
     24          8           0       -2.405221   -2.703741    1.329785
     25         17           0       -0.709891   -1.376813   -0.103635
     26          1           0        2.586800    1.062296    4.167741
     27          1           0        3.689113   -0.285512    3.810091
     28          1           0        1.962695   -0.587835    4.043284
     29          6           0        4.995192   -0.957373   -1.135938
     30          6           0        2.991056   -0.832366   -2.621149
     31          6           0        3.172427   -2.667138   -0.941680
     32          6           0        1.052376    3.857932   -0.088976
     33          6           0       -0.937347    2.490343    0.584186
     34          6           0        0.043933    2.229312   -1.694647
     35          1           0       -0.781657    2.787593    1.626644
     36          1           0       -1.407604    1.500222    0.581626
     37          1           0       -1.644052    3.202769    0.141771
     38          1           0        1.279901    4.090989    0.957647
     39          1           0        0.394715    4.645404   -0.477615
     40          1           0        1.990387    3.884887   -0.655762
     41          1           0        0.935513    2.300506   -2.324388
     42          1           0       -0.685860    2.970958   -2.041040
     43          1           0       -0.379021    1.228614   -1.838896
     44          1           0        3.537405   -2.987433    0.040099
     45          1           0        3.659184   -3.292354   -1.699851
     46          1           0        2.094365   -2.861936   -0.981426
     47          1           0        3.218938    0.207356   -2.877284
     48          1           0        1.908270   -0.967404   -2.717332
     49          1           0        3.486703   -1.484789   -3.349892
     50          1           0        5.243961    0.095994   -1.310717
     51          1           0        5.504845   -1.558668   -1.898694
     52          1           0        5.397359   -1.244873   -0.158116
 ---------------------------------------------------------------------

 SCF Done:  E(RM062X) =  -1406.89161682     A.U. after    1 cycles

 The electronic state is 1-A.
 Alpha  occ. eigenvalues -- -102.67520 -19.68108 -14.74712 -10.71105 -10.58822
 Alpha  occ. eigenvalues --  -10.58151 -10.58131 -10.57567 -10.57497 -10.57236
 Alpha  occ. eigenvalues --  -10.56831 -10.56732 -10.56716 -10.55472 -10.55364
 Alpha  occ. eigenvalues --  -10.54341 -10.54331 -10.53878 -10.52900 -10.52812
 Alpha  occ. eigenvalues --  -10.52807 -10.52699 -10.52226 -10.52061  -9.82129
 Alpha  occ. eigenvalues --   -7.54476  -7.53911  -7.53840  -1.22128  -1.04832
 Alpha  occ. eigenvalues --   -0.98534  -0.94866  -0.92971  -0.91360  -0.90057
 Alpha  occ. eigenvalues --   -0.87365  -0.86037  -0.82656  -0.79675  -0.77047
 Alpha  occ. eigenvalues --   -0.76909  -0.76817  -0.76274  -0.74124  -0.71117
 Alpha  occ. eigenvalues --   -0.70502  -0.68863  -0.65197  -0.61829  -0.60939
 Alpha  occ. eigenvalues --   -0.60270  -0.56584  -0.56429  -0.55837  -0.55690
 Alpha  occ. eigenvalues --   -0.53027  -0.52611  -0.52206  -0.51918  -0.51686
 Alpha  occ. eigenvalues --   -0.50867  -0.50308  -0.49543  -0.49086  -0.48750
 Alpha  occ. eigenvalues --   -0.48546  -0.46017  -0.45643  -0.45522  -0.45002
 Alpha  occ. eigenvalues --   -0.44877  -0.43729  -0.43438  -0.43388  -0.42746
 Alpha  occ. eigenvalues --   -0.42609  -0.41915  -0.41673  -0.41587  -0.40116
 Alpha  occ. eigenvalues --   -0.39261  -0.38896  -0.38206  -0.38120  -0.37776
 Alpha  occ. eigenvalues --   -0.37698  -0.36461  -0.36257  -0.32697  -0.32294
 Alpha  occ. eigenvalues --   -0.31995  -0.30711  -0.28926
 Alpha virt. eigenvalues --   -0.04527   0.00673   0.01234   0.01783   0.02006
 Alpha virt. eigenvalues --    0.02266   0.02612   0.02842   0.03571   0.03727
 Alpha virt. eigenvalues --    0.04025   0.04383   0.04703   0.05051   0.05192

 Mulliken charges:
               1
     1  C   -0.327737
     2  C   -0.258938
     3  C    0.048482
     4  C    0.569953
     5  C   -0.415452
     6  C   -0.471041
     7  N   -0.079668
     8  C   -0.889018
     9  C   -0.240383
    10  C    0.388161
    11  C   -0.188576
    12  C   -0.943398
    13  H    0.247256
    14  H    0.246680
    15  H    0.256447
    16  H    0.247220
    17  H    0.267604
    18  C   -0.385215
    19  H    0.236800
    20  C   -0.350205
    21  C   -0.457691
    22  H    0.241594
    23  C   -0.080842
    24  O   -0.326560
    25  Cl   0.068392
    26  H    0.232217
    27  H    0.232451
    28  H    0.260898
    29  C   -0.381595
    30  C   -0.453614
    31  C   -0.368408
    32  C   -0.375610
    33  C   -0.384702
    34  C   -0.446664
    35  H    0.230683
    36  H    0.255077
    37  H    0.233334
    38  H    0.242436
    39  H    0.231871
    40  H    0.243243
    41  H    0.243748
    42  H    0.221980
    43  H    0.253205
    44  H    0.234001
    45  H    0.230203
    46  H    0.247756
    47  H    0.237439
    48  H    0.247622
    49  H    0.220126
    50  H    0.241393
    51  H    0.230758
    52  H    0.236285
 Sum of Mulliken charges =   0.00000

 Dipole moment (field-independent basis, Debye):
    X=             -2.8739    Y=              2.5446    Z=              0.8491  Tot=              3.9313
 Quadrupole moment (field-independent basis, Debye-Ang):
   XX=           -125.0918   YY=           -159.8317   ZZ=           -149.8012
   XY=            -11.1210   XZ=              8.2054   YZ=              1.9770

  Exact polarizability: 367.478 -47.108 315.681  -5.952 -29.156 321.160
 Approx polarizability: 332.818 -37.353 307.198  -9.708 -34.104 320.277

                      1                      2                      3
                      A                      A                      A
 Frequencies --     15.9618                19.8448                28.6426
 Red. masses --      5.2934                 5.4183                 4.8690
 Frc consts  --      0.0008                 0.0013                 0.0024
 IR Inten    --      0.3516                 1.5377                 1.1655

                      4                      5                      6
                      A                      A                      A
 Frequencies --     34.2439                39.7374                52.6012
 Red. masses --      4.6991                 6.4403                 2.8227
 Frc consts  --      0.0032                 0.0060                 0.0046
 IR Inten    --      0.3998                 0.1082                 0.0883

                      7                      8                      9
                      A                      A                      A
 Frequencies --     58.4297                69.4542                73.1704
 Red. masses --      5.4184                 8.4850                 3.0783
 Frc consts  --      0.0109                 0.0241                 0.0097
 IR Inten    --      0.3671                 0.0463                 0.1980

                     10                     11                     12
                      A                      A                      A
 Frequencies --    111.0468               112.8274               130.7887
 Red. masses --      3.0017                 1.0200                 3.1265
 Frc consts  --      0.0218                 0.0077                 0.0315
 IR Inten    --      4.3353                 0.2235                 0.1985

                     13                     14                     15
                      A                      A                      A
 Frequencies --    140.4788               159.5968               203.2523
 Red. masses --      3.2617                 5.2018                 7.4977
 Frc consts  --      0.0379                 0.0781                 0.1825
 IR Inten    --      0.2424                 0.5353                 1.5644

                     16                     17                     18
                      A                      A                      A
 Frequencies --    208.7987               213.3661               218.2201
 Red. masses --      2.8742                 1.2151                 1.2584
 Frc consts  --      0.0738                 0.0326                 0.0353
 IR Inten    --      2.0563                 0.0842                 0.1306

                     19                     20                     21
                      A                      A                      A
 Frequencies --    240.2607               268.1259               283.1501
 Red. masses --      1.9697                 2.7696                 1.1646
 Frc consts  --      0.0670                 0.1173                 0.0550
 IR Inten    --      2.1790                 0.4275                 0.1548

                     22                     23                     24
                      A                      A                      A
 Frequencies --    290.7715               303.2855               305.6118
 Red. masses --      1.1985                 1.6000                 1.2913
 Frc consts  --      0.0597                 0.0867                 0.0711
 IR Inten    --      0.0421                 0.2343                 0.0491

                     25                     26                     27
                      A                      A                      A
 Frequencies --    322.9995               323.8907               330.4856
 Red. masses --      3.0170                 1.8191                 1.6142
 Frc consts  --      0.1855                 0.1124                 0.1039
 IR Inten    --     13.0022                 0.5342                 4.7322

                     28                     29                     30
                      A                      A                      A
 Frequencies --    337.4805               354.7256               360.1493
 Red. masses --      2.4698                 2.5624                 2.5953
 Frc consts  --      0.1657                 0.1900                 0.1983
 IR Inten    --      2.2160                 0.6049                 1.5009

                     31                     32                     33
                      A                      A                      A
 Frequencies --    391.3535               406.3183               411.5252
 Red. masses --      2.2429                 2.5914                 2.6450
 Frc consts  --      0.2024                 0.2521                 0.2639
 IR Inten    --      0.0813                 0.9341                 3.8526

                     34                     35                     36
                      A                      A                      A
 Frequencies --    416.7288               425.0987               442.1602
 Red. masses --      2.8090                 5.0975                 6.6808
 Frc consts  --      0.2874                 0.5427                 0.7696
 IR Inten    --      0.8016                 2.3414                 7.0790

                     37                     38                     39
                      A                      A                      A
 Frequencies --    450.2017               515.7769               529.1911
 Red. masses --      2.7272                10.5472                 2.8892
 Frc consts  --      0.3257                 1.6531                 0.4767
 IR Inten    --      0.2012                 8.8742                 0.2407

                     40                     41                     42
                      A                      A                      A
 Frequencies --    536.5557               570.0686               576.5093
 Red. masses --      5.1567                 2.6777                 3.5335
 Frc consts  --      0.8747                 0.5127                 0.6919
 IR Inten    --      5.1668                 0.7540                 2.4022

                     43                     44                     45
                      A                      A                      A
 Frequencies --    583.4329               625.9866               668.9633
 Red. masses --      3.3791                 6.4315                 5.2603
 Frc consts  --      0.6777                 1.4849                 1.3870
 IR Inten    --      4.0547                 2.0687                27.5098

                     46                     47                     48
                      A                      A                      A
 Frequencies --    686.7927               702.9688               709.5080
 Red. masses --      7.6056                 1.9707                 4.3769
 Frc consts  --      2.1137                 0.5738                 1.2982
 IR Inten    --    158.9966                79.2299                 0.0521

                     49                     50                     51
                      A                      A                      A
 Frequencies --    798.0894               800.4851               802.5070
 Red. masses --      3.1956                 3.4995                 1.7737
 Frc consts  --      1.1992                 1.3212                 0.6730
 IR Inten    --      0.9436                 1.5796                50.5309

                     52                     53                     54
                      A                      A                      A
 Frequencies --    841.8815               881.7700               893.0929
 Red. masses --      2.7798                 1.2521                 1.6768
 Frc consts  --      1.1608                 0.5736                 0.7880
 IR Inten    --      0.1897                 0.6356               121.3417

                     55                     56                     57
                      A                      A                      A
 Frequencies --    895.7071               931.0236               934.6683
 Red. masses --      5.6103                 1.4586                 2.2053
 Frc consts  --      2.6520                 0.7449                 1.1351
 IR Inten    --    308.6009                 2.7111                15.6058

                     58                     59                     60
                      A                      A                      A
 Frequencies --    951.2868               953.4079               956.8473
 Red. masses --      1.6268                 1.5958                 2.3633
 Frc consts  --      0.8674                 0.8547                 1.2748
 IR Inten    --      1.3165                 1.6110                 5.6400

                     61                     62                     63
                      A                      A                      A
 Frequencies --    960.0928               964.7814               969.9752
 Red. masses --      1.5827                 1.5852                 1.3514
 Frc consts  --      0.8595                 0.8693                 0.7491
 IR Inten    --      4.4284                 8.5098                 4.7557

                     64                     65                     66
                      A                      A                      A
 Frequencies --    975.0705               983.1932              1019.9887
 Red. masses --      1.2200                 1.3542                 5.6619
 Frc consts  --      0.6834                 0.7713                 3.4706
 IR Inten    --      1.2223                 2.4210                 1.9679

                     67                     68                     69
                      A                      A                      A
 Frequencies --   1023.5666              1024.6590              1035.9801
 Red. masses --      7.1126                 1.3849                 1.4027
 Frc consts  --      4.3905                 0.8567                 0.8870
 IR Inten    --      4.2428                 0.1599                 3.7422

                     70                     71                     72
                      A                      A                      A
 Frequencies --   1044.4034              1049.0338              1051.2603
 Red. masses --      1.4020                 1.3145                 1.4038
 Frc consts  --      0.9010                 0.8523                 0.9140
 IR Inten    --      1.7677                 0.0005                 0.8078

                     73                     74                     75
                      A                      A                      A
 Frequencies --   1056.8783              1058.0542              1068.6011
 Red. masses --      1.4180                 1.4107                 2.1488
 Frc consts  --      0.9332                 0.9305                 1.4457
 IR Inten    --      0.1438                 0.1070                 2.3787

                     76                     77                     78
                      A                      A                      A
 Frequencies --   1075.3860              1130.6332              1169.4255
 Red. masses --      1.5629                 1.4968                 1.6045
 Frc consts  --      1.0649                 1.1274                 1.2928
 IR Inten    --     10.3453                 5.1978                 2.2355

                     79                     80                     81
                      A                      A                      A
 Frequencies --   1186.9286              1203.8568              1210.6850
 Red. masses --      1.1055                 1.7986                 1.1736
 Frc consts  --      0.9176                 1.5358                 1.0135
 IR Inten    --      2.0027                27.8380                64.8072

                     82                     83                     84
                      A                      A                      A
 Frequencies --   1242.5584              1244.2249              1247.5223
 Red. masses --      2.8953                 2.5437                 2.5451
 Frc consts  --      2.6338                 2.3201                 2.3338
 IR Inten    --    209.1845                85.8275                11.3213

                     85                     86                     87
                      A                      A                      A
 Frequencies --   1250.3687              1260.3615              1265.7483
 Red. masses --      2.9326                 3.0206                 2.9665
 Frc consts  --      2.7013                 2.8270                 2.8002
 IR Inten    --      2.4200                 9.0753                15.0823

                     88                     89                     90
                      A                      A                      A
 Frequencies --   1296.8592              1316.3690              1352.4167
 Red. masses --      2.1160                 6.9933                 1.8076
 Frc consts  --      2.0968                 7.1398                 1.9480
 IR Inten    --     13.0356                 0.3431                 1.6635

                     91                     92                     93
                      A                      A                      A
 Frequencies --   1369.6667              1376.6768              1407.6790
 Red. masses --      2.8581                 3.6180                 1.2854
 Frc consts  --      3.1591                 4.0400                 1.5007
 IR Inten    --     14.4828                 1.2997                13.4553

                     94                     95                     96
                      A                      A                      A
 Frequencies --   1409.2053              1410.0492              1414.9167
 Red. masses --      1.2619                 1.2465                 1.2837
 Frc consts  --      1.4765                 1.4602                 1.5142
 IR Inten    --     14.6702                 5.9287                11.3688

                     97                     98                     99
                      A                      A                      A
 Frequencies --   1431.8505              1434.6714              1439.0168
 Red. masses --      1.2998                 1.2551                 1.2942
 Frc consts  --      1.5701                 1.5221                 1.5790
 IR Inten    --      3.8565                 2.2961                 0.6425

                    100                    101                    102
                      A                      A                      A
 Frequencies --   1462.3281              1488.2674              1490.1987
 Red. masses --      2.1142                 1.4334                 1.0478
 Frc consts  --      2.6637                 1.8705                 1.3710
 IR Inten    --     12.9619                 2.3823                 2.0059

                    103                    104                    105
                      A                      A                      A
 Frequencies --   1491.8337              1493.5880              1496.3022
 Red. masses --      1.3858                 1.0611                 1.0457
 Frc consts  --      1.8171                 1.3947                 1.3794
 IR Inten    --      4.3089                 1.4539                 0.3078

                    106                    107                    108
                      A                      A                      A
 Frequencies --   1497.1907              1498.9287              1501.5918
 Red. masses --      1.1430                 1.0998                 1.4944
 Frc consts  --      1.5096                 1.4559                 1.9852
 IR Inten    --      8.5769                 7.1523                12.2917

                    109                    110                    111
                      A                      A                      A
 Frequencies --   1502.5038              1503.3802              1509.1063
 Red. masses --      1.3940                 1.2701                 1.0568
 Frc consts  --      1.8542                 1.6913                 1.4180
 IR Inten    --     19.0240                46.0389                 6.9555

                    112                    113                    114
                      A                      A                      A
 Frequencies --   1512.3231              1516.3160              1517.9169
 Red. masses --      1.0928                 1.0660                 1.0736
 Frc consts  --      1.4726                 1.4440                 1.4575
 IR Inten    --      7.3380                12.7575                 7.3863

                    115                    116                    117
                      A                      A                      A
 Frequencies --   1526.8841              1528.7953              1545.5801
 Red. masses --      1.1622                 1.1143                 2.2637
 Frc consts  --      1.5964                 1.5344                 3.1861
 IR Inten    --     53.0569                 9.9393                 1.7603

                    118                    119                    120
                      A                      A                      A
 Frequencies --   1659.0492              1670.7468              1683.3494
 Red. masses --      8.2103                 5.9633                 6.0670
 Frc consts  --     13.3147                 9.8075                10.1291
 IR Inten    --    158.6347                15.4227               153.7841

                    121                    122                    123
                      A                      A                      A
 Frequencies --   1684.0273              1871.2897              3059.7495
 Red. masses --      5.9322                13.2037                 1.0356
 Frc consts  --      9.9120                27.2412                 5.7122
 IR Inten    --     53.0962               599.4546                37.6390

                    124                    125                    126
                      A                      A                      A
 Frequencies --   3060.2825              3063.7447              3066.0530
 Red. masses --      1.0351                 1.0358                 1.0360
 Frc consts  --      5.7117                 5.7282                 5.7383
 IR Inten    --     47.7032                33.3831                32.1303

                    127                    128                    129
                      A                      A                      A
 Frequencies --   3072.6840              3074.2779              3080.1015
 Red. masses --      1.0378                 1.0381                 1.0369
 Frc consts  --      5.7729                 5.7804                 5.7958
 IR Inten    --     45.2062                46.2510                19.2631

                    130                    131                    132
                      A                      A                      A
 Frequencies --   3131.2577              3132.2654              3134.9046
 Red. masses --      1.1021                 1.1022                 1.1020
 Frc consts  --      6.3665                 6.3715                 6.3809
 IR Inten    --     32.6175                23.8919                35.1996

                    133                    134                    135
                      A                      A                      A
 Frequencies --   3136.9275              3141.8381              3142.7341
 Red. masses --      1.1018                 1.1028                 1.1018
 Frc consts  --      6.3880                 6.4136                 6.4116
 IR Inten    --     21.5669                25.6375                19.1780

                    136                    137                    138
                      A                      A                      A
 Frequencies --   3143.0610              3144.2366              3145.0706
 Red. masses --      1.1003                 1.1019                 1.1019
 Frc consts  --      6.4040                 6.4181                 6.4218
 IR Inten    --     81.4032                47.5961                48.9743

                    139                    140                    141
                      A                      A                      A
 Frequencies --   3145.4111              3147.6087              3159.1134
 Red. masses --      1.1002                 1.1007                 1.1015
 Frc consts  --      6.4130                 6.4254                 6.4769
 IR Inten    --     64.0376                13.3979                19.3822

                    142                    143                    144
                      A                      A                      A
 Frequencies --   3159.5550              3165.4494              3211.1920
 Red. masses --      1.1019                 1.1038                 1.0914
 Frc consts  --      6.4811                 6.5165                 6.6307
 IR Inten    --     57.9419                17.8852                 9.7250

                    145                    146                    147
                      A                      A                      A
 Frequencies --   3214.5738              3230.5650              3236.8602
 Red. masses --      1.0912                 1.0877                 1.0912
 Frc consts  --      6.6437                 6.6883                 6.7357
 IR Inten    --      9.5069                 0.0243                 5.7377

                    148                    149                    150
                      A                      A                      A
 Frequencies --   3247.5325              3252.8694              3270.1666
 Red. masses --      1.0940                 1.0981                 1.0921
 Frc consts  --      6.7979                 6.8456                 6.8812
 IR Inten    --      2.2760                 9.4501                 1.2759

 - Thermochemistry -
 -------------------
 Temperature   298.150 Kelvin.  Pressure   1.00000 Atm.
 Atom     1 has atomic number  6 and mass  12.00000

 Molecular mass:   345.18594 amu.
 Principal axes and moments of inertia in atomic units:
                           1         2         3
     Eigenvalues --  5712.37755********************
           X            0.99978  -0.02069  -0.00315
           Y            0.02074   0.99965   0.01639
           Z            0.00281  -0.01645   0.99986
 This molecule is an asymmetric top.
 Rotational symmetry number  1.
 Warning -- assumption of classical behavior for rotation
           may cause significant error
 Rotational temperatures (Kelvin)      0.01516     0.00625     0.00577
 Rotational constants (GHZ):           0.31594     0.13028     0.12014
 Zero-point vibrational energy    1173270.5 (Joules/Mol)
                                  280.41837 (Kcal/Mol)
 Warning -- explicit consideration of  43 degrees of freedom as
           vibrations may cause significant error
 Vibrational temperatures:     22.97    28.55    41.21    49.27    57.17
          (Kelvin)             75.68    84.07    99.93   105.28   159.77
                              162.33   188.18   202.12   229.62   292.43
                              300.41   306.99   313.97   345.68   385.77
                              407.39   418.35   436.36   439.71   464.72
                              466.01   475.49   485.56   510.37   518.17
                              563.07   584.60   592.09   599.58   611.62
                              636.17   647.74   742.09   761.39   771.98
                              820.20   829.47   839.43   900.65   962.49
                              988.14  1011.41  1020.82  1148.27  1151.72
                             1154.63  1211.28  1268.67  1284.96  1288.72
                             1339.53  1344.78  1368.69  1371.74  1376.69
                             1381.36  1388.10  1395.58  1402.91  1414.59
                             1467.53  1472.68  1474.25  1490.54  1502.66
                             1509.32  1512.53  1520.61  1522.30  1537.48
                             1547.24  1626.73  1682.54  1707.72  1732.08
                             1741.90  1787.76  1790.16  1794.90  1799.00
                             1813.38  1821.13  1865.89  1893.96  1945.82
                             1970.64  1980.73  2025.33  2027.53  2028.74
                             2035.75  2060.11  2064.17  2070.42  2103.96
                             2141.28  2144.06  2146.41  2148.94  2152.84
                             2154.12  2156.62  2160.45  2161.77  2163.03
                             2171.26  2175.89  2181.64  2183.94  2196.84
                             2199.59  2223.74  2387.00  2403.83  2421.96
                             2422.94  2692.37  4402.29  4403.06  4408.04
                             4411.36  4420.90  4423.19  4431.57  4505.18
                             4506.63  4510.42  4513.33  4520.40  4521.69
                             4522.16  4523.85  4525.05  4525.54  4528.70
                             4545.25  4545.89  4554.37  4620.18  4625.05
                             4648.06  4657.11  4672.47  4680.15  4705.03

 Zero-point correction=                           0.446875 (Hartree/Particle)
 Thermal correction to Energy=                    0.473213
 Thermal correction to Enthalpy=                  0.474157
 Thermal correction to Gibbs Free Energy=         0.387934
 Sum of electronic and zero-point Energies=          -1406.444742
 Sum of electronic and thermal Energies=             -1406.418404
 Sum of electronic and thermal Enthalpies=           -1406.417459
 Sum of electronic and thermal Free Energies=        -1406.503683

                     E (Thermal)             CV                S
                      KCal/Mol        Cal/Mol-Kelvin    Cal/Mol-Kelvin
 Total                  296.946             98.593            181.473
 Electronic               0.000              0.000              0.000
 Translational            0.889              2.981             43.411
 Rotational               0.889              2.981             35.429
 Vibrational            295.168             92.632            102.634
 Vibration     1          0.593              1.986              7.082
 Vibration     2          0.593              1.986              6.650
 Vibration     3          0.593              1.984              5.921
 Vibration     4          0.594              1.983              5.567
 Vibration     5          0.594              1.981              5.272
 Vibration     6          0.596              1.977              4.717
 Vibration     7          0.596              1.974              4.510
 Vibration     8          0.598              1.969              4.169
 Vibration     9          0.599              1.967              4.066
 Vibration    10          0.607              1.940              3.251
 Vibration    11          0.607              1.939              3.220
 Vibration    12          0.612              1.923              2.934
 Vibration    13          0.615              1.913              2.797
 Vibration    14          0.621              1.892              2.555
 Vibration    15          0.639              1.835              2.103
 Vibration    16          0.642              1.827              2.054
 Vibration    17          0.644              1.821              2.015
 Vibration    18          0.646              1.813              1.974
 Vibration    19          0.657              1.779              1.801
 Vibration    20          0.673              1.732              1.608
 Vibration    21          0.682              1.705              1.515
 Vibration    22          0.687              1.691              1.469
 Vibration    23          0.695              1.667              1.399
 Vibration    24          0.696              1.663              1.386
 Vibration    25          0.708              1.629              1.295
 Vibration    26          0.708              1.628              1.290
 Vibration    27          0.713              1.615              1.258
 Vibration    28          0.718              1.601              1.224
 Vibration    29          0.731              1.566              1.145
 Vibration    30          0.735              1.554              1.121
 Vibration    31          0.759              1.489              0.995
 Vibration    32          0.771              1.456              0.940
 Vibration    33          0.775              1.445              0.921
 Vibration    34          0.780              1.434              0.903
 Vibration    35          0.787              1.416              0.875
 Vibration    36          0.802              1.378              0.820
 Vibration    37          0.809              1.360              0.795
 Vibration    38          0.871              1.215              0.620
 Vibration    39          0.884              1.185              0.589
 Vibration    40          0.892              1.169              0.573
 Vibration    41          0.926              1.096              0.504
 Vibration    42          0.933              1.082              0.492
 Vibration    43          0.940              1.067              0.479

 Normal termination of Gaussian 09 at Tue May  8 08:19:51 2018.
