 Gaussian 09, Revision D.01,
 Gaussian 09:  EM64L-G09RevD.01 24-Apr-2013

 ----------------------------------------------------------------------
 #p freq m062x/6-311+g(d,p) scrf=(smd,solvent=chloroform) Geom=Checkpoi
 nt pop=nbo
 ----------------------------------------------------------------------

 -----
 1.g09
 -----
 Structure from the checkpoint file:  "1.chk"
 Charge =  0 Multiplicity = 1

                         Standard orientation:
 ---------------------------------------------------------------------
 Center     Atomic      Atomic             Coordinates (Angstroms)
 Number     Number       Type             X           Y           Z
 ---------------------------------------------------------------------
      1          6           0        0.570022   -1.134275    0.000037
      2          6           0        1.935166   -1.407206   -0.000007
      3          6           0        2.858641   -0.362369   -0.000035
      4          6           0        2.421307    0.963627   -0.000018
      5          6           0        0.132320    0.193815    0.000051
      6          6           0        1.060552    1.244997    0.000023
      7          1           0       -0.143572   -1.951120    0.000061
      8          1           0        2.276418   -2.437850   -0.000018
      9          1           0        3.922791   -0.581239   -0.000069
     10          1           0        3.140925    1.776912   -0.000038
     11          1           0        0.706169    2.271121    0.000035
     12          6           0       -1.297314    0.583633    0.000086
     13          8           0       -1.722039    1.696997   -0.000046
     14         17           0       -2.482976   -0.773361   -0.000025
 ---------------------------------------------------------------------

 SCF Done:  E(RM062X) =  -805.143487106     A.U. after   15 cycles

 The electronic state is 1-A.
 Alpha  occ. eigenvalues -- -102.68099 -19.66063 -10.70560 -10.58177 -10.56839
 Alpha  occ. eigenvalues --  -10.56706 -10.56402 -10.55898 -10.55889  -9.82410
 Alpha  occ. eigenvalues --   -7.54861  -7.54293  -7.54227  -1.22516  -0.98794
 Alpha  occ. eigenvalues --   -0.95180  -0.87643  -0.86253  -0.74444  -0.70749
 Alpha  occ. eigenvalues --   -0.65518  -0.61310  -0.56889  -0.56043  -0.53314
 Alpha  occ. eigenvalues --   -0.52402  -0.52073  -0.50549  -0.45351  -0.43671
 Alpha  occ. eigenvalues --   -0.41982  -0.39541  -0.39460  -0.37050  -0.33103
 Alpha  occ. eigenvalues --   -0.32661
 Alpha virt. eigenvalues --   -0.04979   0.00372   0.01048   0.02664   0.03152
 Alpha virt. eigenvalues --    0.04619   0.04912   0.05061   0.05849   0.05903
 Alpha virt. eigenvalues --    0.06671   0.08019   0.08283   0.08755   0.08983

 Mulliken charges:
               1
     1  C   -0.809112
     2  C   -0.569391
     3  C   -0.150211
     4  C   -0.415085
     5  C    1.620709
     6  C    0.267275
     7  H    0.219771
     8  H    0.197130
     9  H    0.199048
    10  H    0.197189
    11  H    0.210955
    12  C   -1.147442
    13  O   -0.162086
    14  Cl   0.341250
 Sum of Mulliken charges =   0.00000

 Dipole moment (field-independent basis, Debye):
    X=              4.7851    Y=             -1.5758    Z=              0.0002  Tot=              5.0378
 Quadrupole moment (field-independent basis, Debye-Ang):
   XX=            -56.5728   YY=            -55.8522   ZZ=            -61.9037
   XY=              3.2494   XZ=             -0.0006   YZ=              0.0003

  Exact polarizability: 160.494   1.998 134.278  -0.001   0.001  63.712
 Approx polarizability: 146.923   0.742 144.557  -0.001   0.000  68.081

 Summary of Natural Population Analysis:

                                       Natural Population
                Natural  -----------------------------------------------
    Atom  No    Charge         Core      Valence    Rydberg      Total
 -----------------------------------------------------------------------
      C    1   -0.16520      1.99914     4.14902    0.01704     6.16520
      C    2   -0.21756      1.99922     4.20071    0.01763     6.21756
      C    3   -0.17288      1.99922     4.15623    0.01743     6.17288
      C    4   -0.21686      1.99921     4.20040    0.01724     6.21686
      C    5   -0.20335      1.99890     4.18769    0.01677     6.20335
      C    6   -0.15470      1.99914     4.13738    0.01819     6.15470
      H    7    0.24420      0.00000     0.75440    0.00139     0.75580
      H    8    0.23385      0.00000     0.76503    0.00112     0.76615
      H    9    0.23155      0.00000     0.76742    0.00102     0.76845
      H   10    0.23420      0.00000     0.76468    0.00112     0.76580
      H   11    0.24429      0.00000     0.75418    0.00153     0.75571
      C   12    0.57143      1.99916     3.37565    0.05375     5.42857
      O   13   -0.53382      1.99973     6.51654    0.01756     8.53382
     Cl   14   -0.09514      9.99969     7.08062    0.01483    17.09514
 =======================================================================
   * Total *    0.00000     25.99341    45.80995    0.19664    72.00000

                      1                      2                      3
                      A                      A                      A
 Frequencies --     56.9432               167.9404               201.6082
 Red. masses --      6.3479                 5.2183                 8.0005
 Frc consts  --      0.0121                 0.0867                 0.1916
 IR Inten    --      0.3409                 0.4643                 0.8993

                      4                      5                      6
                      A                      A                      A
 Frequencies --    324.6526               413.3205               434.1754
 Red. masses --      8.2143                 2.9060                12.0452
 Frc consts  --      0.5101                 0.2925                 1.3378
 IR Inten    --     18.1118                 0.0336                12.9626

                      7                      8                      9
                      A                      A                      A
 Frequencies --    437.0398               513.6906               626.3802
 Red. masses --      3.7581                10.8230                 6.4690
 Frc consts  --      0.4229                 1.6827                 1.4954
 IR Inten    --      0.4836                13.2429                 2.4008

                     10                     11                     12
                      A                      A                      A
 Frequencies --    671.1790               685.8078               704.2190
 Red. masses --      5.3937                 7.6250                 1.9130
 Frc consts  --      1.4316                 2.1130                 0.5590
 IR Inten    --     21.8468               156.9867                86.4294

                     13                     14                     15
                      A                      A                      A
 Frequencies --    807.5870               881.0000               891.0655
 Red. masses --      1.8171                 1.2502                 7.5924
 Frc consts  --      0.6983                 0.5717                 3.5518
 IR Inten    --     51.8977                 0.0291               386.5408

                     16                     17                     18
                      A                      A                      A
 Frequencies --    984.6180              1015.8659              1025.5953
 Red. masses --      1.3628                 5.9012                 1.3732
 Frc consts  --      0.7784                 3.5881                 0.8510
 IR Inten    --      2.7218                 0.8051                 0.1736

                     19                     20                     21
                      A                      A                      A
 Frequencies --   1044.6621              1057.7696              1121.5706
 Red. masses --      1.3090                 2.1470                 1.5111
 Frc consts  --      0.8417                 1.4153                 1.1200
 IR Inten    --      0.0000                 2.4279                 6.2576

                     22                     23                     24
                      A                      A                      A
 Frequencies --   1181.1702              1200.4157              1231.4907
 Red. masses --      1.1433                 1.2229                 3.2241
 Frc consts  --      0.9398                 1.0383                 2.8809
 IR Inten    --      3.6009                95.3358               266.4852

                     25                     26                     27
                      A                      A                      A
 Frequencies --   1328.4113              1350.7946              1486.5283
 Red. masses --      4.0890                 1.4771                 2.2791
 Frc consts  --      4.2514                 1.5879                 2.9672
 IR Inten    --      6.5580                10.8241                32.5516

                     28                     29                     30
                      A                      A                      A
 Frequencies --   1527.7654              1648.2736              1661.9047
 Red. masses --      2.2297                 5.8223                 5.8023
 Frc consts  --      3.0663                 9.3197                 9.4420
 IR Inten    --      1.1753                17.0843                49.9917

                     31                     32                     33
                      A                      A                      A
 Frequencies --   1828.4188              3172.7690              3186.2868
 Red. masses --     13.1826                 1.0895                 1.0905
 Frc consts  --     25.9659                 6.4618                 6.5229
 IR Inten    --    623.2968                 0.3160                 2.6664

                     34                     35                     36
                      A                      A                      A
 Frequencies --   3194.6709              3200.3785              3204.1735
 Red. masses --      1.0931                 1.0948                 1.0985
 Frc consts  --      6.5732                 6.6066                 6.6450
 IR Inten    --      2.1859                 0.9155                 3.9855

 - Thermochemistry -
 -------------------
 Temperature   298.150 Kelvin.  Pressure   1.00000 Atm.
 Atom     1 has atomic number  6 and mass  12.00000

 Molecular mass:   140.00289 amu.
 Principal axes and moments of inertia in atomic units:
                           1         2         3
     Eigenvalues --   573.403381943.801322517.20470
           X            0.99998  -0.00587   0.00000
           Y            0.00587   0.99998   0.00000
           Z            0.00000   0.00000   1.00000
 This molecule is an asymmetric top.
 Rotational symmetry number  1.
 Warning -- assumption of classical behavior for rotation
           may cause significant error
 Rotational temperatures (Kelvin)      0.15105     0.04456     0.03441
 Rotational constants (GHZ):           3.14742     0.92846     0.71696
 Zero-point vibrational energy     265990.5 (Joules/Mol)
                                   63.57326 (Kcal/Mol)
 Warning -- explicit consideration of   8 degrees of freedom as
           vibrations may cause significant error
 Vibrational temperatures:     81.93   241.63   290.07   467.10   594.68
          (Kelvin)            624.68   628.80   739.09   901.22   965.68
                              986.72  1013.21  1161.94  1267.56  1282.04
                             1416.64  1461.60  1475.60  1503.03  1521.89
                             1613.69  1699.44  1727.13  1771.84  1911.29
                             1943.49  2138.78  2198.11  2371.50  2391.11
                             2630.68  4564.90  4584.35  4596.41  4604.63
                             4610.09

 Zero-point correction=                           0.101310 (Hartree/Particle)
 Thermal correction to Energy=                    0.108553
 Thermal correction to Enthalpy=                  0.109497
 Thermal correction to Gibbs Free Energy=         0.068474
 Sum of electronic and zero-point Energies=           -805.042177
 Sum of electronic and thermal Energies=              -805.034934
 Sum of electronic and thermal Enthalpies=            -805.033990
 Sum of electronic and thermal Free Energies=         -805.075013

                     E (Thermal)             CV                S
                      KCal/Mol        Cal/Mol-Kelvin    Cal/Mol-Kelvin
 Total                   68.118             27.084             86.341
 Electronic               0.000              0.000              0.000
 Translational            0.889              2.981             40.721
 Rotational               0.889              2.981             29.419
 Vibrational             66.341             21.122             16.202
 Vibration     1          0.596              1.975              4.560
 Vibration     2          0.625              1.882              2.458
 Vibration     3          0.638              1.838              2.118
 Vibration     4          0.709              1.626              1.287
 Vibration     5          0.777              1.441              0.915
 Vibration     6          0.795              1.396              0.845
 Vibration     7          0.797              1.389              0.836
 Vibration     8          0.869              1.220              0.625

 Normal termination of Gaussian 09 at Tue May  8 03:09:37 2018.
