 Gaussian 09, Revision D.01,
 Gaussian 09:  EM64L-G09RevD.01 24-Apr-2013

 ----------------------------------------------------------------------
 #p m062x/6-311+g(d,p) scrf=(smd,solvent=chloroform) Geom=Checkpoint po
 p=nbo output=wfn gfinput
 ----------------------------------------------------------------------

 --
 3c
 --
 Structure from the checkpoint file:  "3c.chk"
 Charge =  0 Multiplicity = 1

                         Standard orientation:
 ---------------------------------------------------------------------
 Center     Atomic      Atomic             Coordinates (Angstroms)
 Number     Number       Type             X           Y           Z
 ---------------------------------------------------------------------
      1          6           0        4.714827    0.169542    0.414039
      2          6           0        4.698454    0.989689   -0.716945
      3          6           0        3.749401   -0.817807    0.569775
      4          6           0        2.761456   -0.987706   -0.411980
      5          6           0        2.745839   -0.167759   -1.543929
      6          6           0        3.716605    0.820101   -1.692172
      7          7           0       -1.778952    1.065457    0.009543
      8          6           0       -2.563068   -0.006993    0.142750
      9          6           0       -2.215178   -1.067582    0.987937
     10          6           0       -1.021531   -1.020989    1.701442
     11          6           0       -0.203896    0.100839    1.527144
     12          6           0       -0.619526    1.133015    0.683426
     13          1           0        5.478576    0.302482    1.174259
     14          1           0        5.452271    1.762744   -0.836184
     15          1           0        1.982825   -0.293807   -2.304277
     16          1           0        3.700893    1.459473   -2.569662
     17          1           0        3.750105   -1.459975    1.445273
     18          6           0       -3.862076   -0.058817   -0.665298
     19          1           0       -2.870570   -1.929855    1.087673
     20          6           0        0.168612    2.430528    0.494283
     21          6           0       -0.640512   -2.137064    2.636874
     22          1           0        0.737506    0.163761    2.065354
     23          6           0        1.768409   -2.061306   -0.166416
     24          8           0        1.767348   -2.811246    0.760602
     25         17           0        0.475559   -2.239001   -1.404283
     26          1           0       -1.353913   -2.197968    3.466937
     27          1           0        0.358834   -1.986972    3.054033
     28          1           0       -0.652677   -3.102138    2.120015
     29          6           0       -0.632513    3.572043    1.141802
     30          6           0        0.325135    2.717813   -1.006030
     31          6           0        1.555381    2.365630    1.138029
     32          6           0       -5.053259   -0.260988    0.285476
     33          6           0       -3.791991   -1.241470   -1.646542
     34          6           0       -4.077976    1.231109   -1.459562
     35          1           0       -3.656928   -2.194720   -1.123422
     36          1           0       -2.959987   -1.119674   -2.350202
     37          1           0       -4.721293   -1.304028   -2.225864
     38          1           0       -4.985680   -1.208933    0.830092
     39          1           0       -5.989360   -0.271830   -0.285674
     40          1           0       -5.112127    0.550390    1.020365
     41          1           0       -4.138809    2.104134   -0.801213
     42          1           0       -5.017019    1.157336   -2.020799
     43          1           0       -3.264348    1.406755   -2.170190
     44          1           0        1.497104    2.249416    2.226700
     45          1           0        2.097444    3.296410    0.934086
     46          1           0        2.149244    1.537375    0.733772
     47          1           0       -0.650728    2.837231   -1.485087
     48          1           0        0.854923    1.900977   -1.509796
     49          1           0        0.901405    3.639735   -1.151443
     50          1           0       -1.627005    3.653378    0.690685
     51          1           0       -0.110512    4.526664    1.002353
     52          1           0       -0.756332    3.405434    2.218793
 ---------------------------------------------------------------------

 SCF Done:  E(RM062X) =  -1407.16169669     A.U. after   16 cycles

 The electronic state is 1-A.
 Alpha  occ. eigenvalues -- -102.67845 -19.65839 -14.73195 -10.70351 -10.58080
 Alpha  occ. eigenvalues --  -10.57359 -10.57336 -10.56726 -10.56649 -10.56336
 Alpha  occ. eigenvalues --  -10.55868 -10.55835 -10.55813 -10.54525 -10.54497
 Alpha  occ. eigenvalues --  -10.53418 -10.53215 -10.52593 -10.51701 -10.51692
 Alpha  occ. eigenvalues --  -10.51537 -10.51458 -10.51221 -10.50990  -9.82182
 Alpha  occ. eigenvalues --   -7.54631  -7.54063  -7.53998  -1.22243  -1.04865
 Alpha  occ. eigenvalues --   -0.98668  -0.94951  -0.92932  -0.91276  -0.89928
 Alpha  occ. eigenvalues --   -0.87498  -0.86154  -0.82615  -0.79463  -0.76977
 Alpha  occ. eigenvalues --   -0.76833  -0.76552  -0.76196  -0.74276  -0.71125
 Alpha  occ. eigenvalues --   -0.70636  -0.68752  -0.65399  -0.61836  -0.61136
 Alpha  occ. eigenvalues --   -0.60157  -0.56775  -0.56653  -0.56025  -0.55822
 Alpha  occ. eigenvalues --   -0.53502  -0.52348  -0.52321  -0.52006  -0.51927
 Alpha  occ. eigenvalues --   -0.50696  -0.50460  -0.49833  -0.49194  -0.48491
 Alpha  occ. eigenvalues --   -0.48266  -0.46037  -0.45576  -0.45228  -0.44912
 Alpha  occ. eigenvalues --   -0.44558  -0.43980  -0.43582  -0.43372  -0.42337
 Alpha  occ. eigenvalues --   -0.42281  -0.41868  -0.41596  -0.41500  -0.40139
 Alpha  occ. eigenvalues --   -0.39278  -0.39142  -0.38355  -0.38248  -0.37611
 Alpha  occ. eigenvalues --   -0.37429  -0.36840  -0.36467  -0.33060  -0.32557
 Alpha  occ. eigenvalues --   -0.31875  -0.30874  -0.29146
 Alpha virt. eigenvalues --   -0.04885   0.00151   0.00743   0.01201   0.01797
 Alpha virt. eigenvalues --    0.02054   0.02117   0.02562   0.03164   0.03337
 Alpha virt. eigenvalues --    0.03664   0.04108   0.04192   0.04815   0.05010

 Mulliken charges:
               1
     1  C   -0.187869
     2  C   -0.233878
     3  C    0.028831
     4  C    1.455397
     5  C   -0.849347
     6  C   -0.423926
     7  N    0.174525
     8  C    0.208138
     9  C   -0.273545
    10  C    0.093332
    11  C   -0.399102
    12  C   -0.551982
    13  H    0.191299
    14  H    0.193869
    15  H    0.206797
    16  H    0.194919
    17  H    0.207625
    18  C    0.160578
    19  H    0.192190
    20  C    0.117818
    21  C   -0.375701
    22  H    0.167547
    23  C   -1.192995
    24  O   -0.092193
    25  Cl   0.387691
    26  H    0.215306
    27  H    0.181090
    28  H    0.223411
    29  C   -0.576073
    30  C   -0.649379
    31  C   -0.501748
    32  C   -0.490482
    33  C   -0.503796
    34  C   -0.566334
    35  H    0.184381
    36  H    0.187015
    37  H    0.184145
    38  H    0.176924
    39  H    0.182204
    40  H    0.187854
    41  H    0.180477
    42  H    0.180088
    43  H    0.179423
    44  H    0.182902
    45  H    0.183248
    46  H    0.141323
    47  H    0.192011
    48  H    0.180581
    49  H    0.178564
    50  H    0.198230
    51  H    0.181540
    52  H    0.187075
 Sum of Mulliken charges =   0.00000

 Dipole moment (field-independent basis, Debye):
    X=              3.5643    Y=              1.5499    Z=              0.4117  Tot=              3.9084
 Quadrupole moment (field-independent basis, Debye-Ang):
   XX=           -133.9759   YY=           -161.6365   ZZ=           -149.6591
   XY=             14.4083   XZ=             -0.3101   YZ=             -3.5153

 Summary of Natural Population Analysis:

                                       Natural Population
                Natural  -----------------------------------------------
    Atom  No    Charge         Core      Valence    Rydberg      Total
 -----------------------------------------------------------------------
      C    1   -0.21688      1.99921     4.20046    0.01721     6.21688
      C    2   -0.17395      1.99921     4.15747    0.01726     6.17395
      C    3   -0.15832      1.99913     4.14237    0.01682     6.15832
      C    4   -0.20691      1.99888     4.18724    0.02079     6.20691
      C    5   -0.16430      1.99914     4.14920    0.01596     6.16430
      C    6   -0.21674      1.99921     4.20004    0.01750     6.21674
      N    7   -0.53461      1.99934     5.51379    0.02149     7.53461
      C    8    0.25924      1.99905     3.70816    0.03355     5.74076
      C    9   -0.26897      1.99895     4.25630    0.01372     6.26897
      C   10    0.01992      1.99911     3.96259    0.01839     5.98008
      C   11   -0.29024      1.99896     4.27293    0.01836     6.29024
      C   12    0.25358      1.99905     3.71396    0.03342     5.74642
      H   13    0.23411      0.00000     0.76475    0.00114     0.76589
      H   14    0.23180      0.00000     0.76716    0.00104     0.76820
      H   15    0.24661      0.00000     0.75212    0.00128     0.75339
      H   16    0.23460      0.00000     0.76428    0.00112     0.76540
      H   17    0.24379      0.00000     0.75476    0.00144     0.75621
      C   18   -0.12480      1.99918     4.10991    0.01571     6.12480
      H   19    0.22678      0.00000     0.77193    0.00129     0.77322
      C   20   -0.12451      1.99918     4.10701    0.01832     6.12451
      C   21   -0.61599      1.99934     4.60617    0.01048     6.61599
      H   22    0.23083      0.00000     0.76741    0.00176     0.76917
      C   23    0.57531      1.99914     3.37206    0.05348     5.42469
      O   24   -0.53505      1.99973     6.51755    0.01777     8.53505
     Cl   25   -0.08727      9.99968     7.07255    0.01504    17.08727
      H   26    0.22640      0.00000     0.77234    0.00126     0.77360
      H   27    0.21929      0.00000     0.77959    0.00112     0.78071
      H   28    0.23130      0.00000     0.76720    0.00150     0.76870
      C   29   -0.57796      1.99934     4.56735    0.01127     6.57796
      C   30   -0.58152      1.99935     4.57038    0.01180     6.58152
      C   31   -0.59536      1.99935     4.58416    0.01185     6.59536
      C   32   -0.58069      1.99935     4.57027    0.01107     6.58069
      C   33   -0.57952      1.99935     4.56914    0.01103     6.57952
      C   34   -0.58089      1.99936     4.56899    0.01254     6.58089
      H   35    0.20819      0.00000     0.79079    0.00102     0.79181
      H   36    0.21183      0.00000     0.78718    0.00098     0.78817
      H   37    0.20789      0.00000     0.79095    0.00116     0.79211
      H   38    0.20712      0.00000     0.79187    0.00101     0.79288
      H   39    0.20862      0.00000     0.79023    0.00116     0.79138
      H   40    0.21180      0.00000     0.78729    0.00091     0.78820
      H   41    0.21296      0.00000     0.78597    0.00107     0.78704
      H   42    0.20264      0.00000     0.79627    0.00110     0.79736
      H   43    0.21431      0.00000     0.78460    0.00109     0.78569
      H   44    0.20916      0.00000     0.78991    0.00092     0.79084
      H   45    0.21257      0.00000     0.78641    0.00101     0.78743
      H   46    0.21230      0.00000     0.78509    0.00261     0.78770
      H   47    0.21999      0.00000     0.77890    0.00111     0.78001
      H   48    0.20801      0.00000     0.79080    0.00118     0.79199
      H   49    0.20408      0.00000     0.79486    0.00106     0.79592
      H   50    0.21612      0.00000     0.78275    0.00113     0.78388
      H   51    0.20588      0.00000     0.79304    0.00108     0.79412
      H   52    0.20749      0.00000     0.79162    0.00089     0.79251
 =======================================================================
   * Total *    0.00000     55.98158   129.54013    0.47829   186.00000

 Normal termination of Gaussian 09 at Wed Jul 11 20:15:27 2018.
