 Gaussian 09, Revision D.01,
 Gaussian 09:  EM64L-G09RevD.01 24-Apr-2013

 ----------------------------------------------------------------------
 #p freq m062x/6-311+g(d,p) scrf=(smd,solvent=chloroform) Geom=Checkpoi
 nt pop=nbo
 ----------------------------------------------------------------------

 -----
 2.g09
 -----
 Structure from the checkpoint file:  "2.chk"
 Charge =  0 Multiplicity = 1

                         Standard orientation:
 ---------------------------------------------------------------------
 Center     Atomic      Atomic             Coordinates (Angstroms)
 Number     Number       Type             X           Y           Z
 ---------------------------------------------------------------------
      1          6           0       -1.191983    1.455554   -0.006741
      2          6           0       -1.157850    0.056791   -0.001034
      3          7           0       -0.001932   -0.616297    0.001805
      4          6           0        1.157346    0.056332   -0.000619
      5          6           0        1.193351    1.452212   -0.005898
      6          6           0        0.000099    2.176793   -0.008178
      7          1           0       -2.142030    1.984168   -0.011135
      8          6           0       -2.460044   -0.748232    0.000534
      9          6           0        2.457284   -0.752777    0.000486
     10          1           0        2.144323    1.980191   -0.009172
     11          6           0        0.009990    3.682052    0.005939
     12          1           0        0.711761    4.078515   -0.734935
     13          1           0        0.325943    4.054253    0.987412
     14          1           0       -0.983043    4.088439   -0.205207
     15          6           0       -3.275001   -0.396854   -1.255571
     16          6           0       -3.277793   -0.386972    1.252057
     17          6           0       -2.186566   -2.253870    0.006814
     18          6           0        3.277114   -0.394113    1.251316
     19          6           0        3.272650   -0.404401   -1.256139
     20          6           0        2.179486   -2.257718    0.007196
     21          1           0       -3.542471    0.665181   -1.282305
     22          1           0       -4.205232   -0.977424   -1.272500
     23          1           0       -2.711605   -0.629610   -2.166669
     24          1           0       -1.617177   -2.563850   -0.875368
     25          1           0       -3.141031   -2.793403    0.008609
     26          1           0       -1.618006   -2.556721    0.891996
     27          1           0       -3.544023    0.675545    1.270656
     28          1           0       -2.716844   -0.613979    2.166138
     29          1           0       -4.208737   -0.966355    1.270853
     30          1           0        1.610641   -2.558920    0.892753
     31          1           0        3.132452   -2.799912    0.008497
     32          1           0        1.608712   -2.566361   -0.874553
     33          1           0        3.546503    0.667627    1.269588
     34          1           0        4.206374   -0.976230    1.269508
     35          1           0        2.716165   -0.619370    2.165832
     36          1           0        3.543467    0.656799   -1.283017
     37          1           0        2.707879   -0.635335   -2.166855
     38          1           0        4.201015   -0.987948   -1.273732
 ---------------------------------------------------------------------

 SCF Done:  E(RM062X) =  -602.007692551     A.U. after   13 cycles

 The electronic state is 1-A.
 Alpha  occ. eigenvalues --  -14.73389 -10.57472 -10.57445 -10.56064 -10.54619
 Alpha  occ. eigenvalues --  -10.54614 -10.53519 -10.53486 -10.53070 -10.51791
 Alpha  occ. eigenvalues --  -10.51789 -10.51786 -10.51784 -10.51032 -10.51029
 Alpha  occ. eigenvalues --   -1.05012  -0.93038  -0.91519  -0.90130  -0.82774
 Alpha  occ. eigenvalues --   -0.79813  -0.76951  -0.76932  -0.76755  -0.76229
 Alpha  occ. eigenvalues --   -0.71269  -0.69022  -0.61918  -0.60358  -0.56727
 Alpha  occ. eigenvalues --   -0.56147  -0.52630  -0.52011  -0.51100  -0.49627
 Alpha  occ. eigenvalues --   -0.49026  -0.48816  -0.48689  -0.45910  -0.45847
 Alpha  occ. eigenvalues --   -0.45684  -0.44914  -0.43676  -0.43374  -0.42779
 Alpha  occ. eigenvalues --   -0.42668  -0.41666  -0.41653  -0.40205  -0.38486
 Alpha  occ. eigenvalues --   -0.38126  -0.37881  -0.37791  -0.36403  -0.32378
 Alpha  occ. eigenvalues --   -0.31073  -0.29207
 Alpha virt. eigenvalues --    0.01395   0.01414   0.01812   0.02452   0.02688
 Alpha virt. eigenvalues --    0.03602   0.04046   0.04106   0.04618   0.04670
 Alpha virt. eigenvalues --    0.05845   0.05921   0.06181   0.06466   0.06831

 Mulliken charges:
               1
     1  C   -0.257399
     2  C   -0.659344
     3  N    0.136419
     4  C   -0.454092
     5  C   -0.039165
     6  C    0.194535
     7  H    0.184618
     8  C    0.193016
     9  C    0.196936
    10  H    0.191915
    11  C   -0.410529
    12  H    0.195588
    13  H    0.216239
    14  H    0.185465
    15  C   -0.503647
    16  C   -0.507231
    17  C   -0.566049
    18  C   -0.505007
    19  C   -0.496414
    20  C   -0.560543
    21  H    0.178611
    22  H    0.181469
    23  H    0.186484
    24  H    0.180188
    25  H    0.179361
    26  H    0.180309
    27  H    0.178709
    28  H    0.186591
    29  H    0.181381
    30  H    0.179925
    31  H    0.179154
    32  H    0.179935
    33  H    0.178593
    34  H    0.181232
    35  H    0.186580
    36  H    0.178572
    37  H    0.186498
    38  H    0.181099
 Sum of Mulliken charges =   0.00000

 Dipole moment (field-independent basis, Debye):
    X=              0.0342    Y=              2.6401    Z=              0.0319  Tot=              2.6405
 Quadrupole moment (field-independent basis, Debye-Ang):
   XX=            -88.3266   YY=            -90.6447   ZZ=            -98.1205
   XY=              0.1687   XZ=              0.0019   YZ=              0.1172

  Exact polarizability: 248.681   0.869 232.935   0.061   0.289 169.417
 Approx polarizability: 226.511   0.876 219.672   0.026   0.197 170.481

 Summary of Natural Population Analysis:

                                       Natural Population
                Natural  -----------------------------------------------
    Atom  No    Charge         Core      Valence    Rydberg      Total
 -----------------------------------------------------------------------
      C    1   -0.27381      1.99897     4.26075    0.01410     6.27381
      C    2    0.25847      1.99905     3.71114    0.03134     5.74153
      N    3   -0.53107      1.99934     5.51158    0.02015     7.53107
      C    4    0.25566      1.99905     3.71401    0.03128     5.74434
      C    5   -0.27213      1.99897     4.25910    0.01407     6.27213
      C    6    0.01518      1.99912     3.97036    0.01534     5.98482
      H    7    0.22682      0.00000     0.77177    0.00141     0.77318
      C    8   -0.12478      1.99919     4.10902    0.01658     6.12478
      C    9   -0.12459      1.99919     4.10880    0.01660     6.12459
      H   10    0.22667      0.00000     0.77198    0.00135     0.77333
      C   11   -0.61492      1.99935     4.60579    0.00978     6.61492
      H   12    0.22501      0.00000     0.77396    0.00103     0.77499
      H   13    0.22934      0.00000     0.76963    0.00103     0.77066
      H   14    0.21894      0.00000     0.78008    0.00099     0.78106
      C   15   -0.58026      1.99935     4.56980    0.01111     6.58026
      C   16   -0.58026      1.99935     4.56981    0.01110     6.58026
      C   17   -0.58150      1.99936     4.56951    0.01263     6.58150
      C   18   -0.58016      1.99935     4.56970    0.01111     6.58016
      C   19   -0.58013      1.99935     4.56967    0.01111     6.58013
      C   20   -0.58149      1.99936     4.56950    0.01263     6.58149
      H   21    0.20679      0.00000     0.79217    0.00104     0.79321
      H   22    0.20842      0.00000     0.79039    0.00119     0.79158
      H   23    0.21194      0.00000     0.78708    0.00098     0.78806
      H   24    0.21401      0.00000     0.78486    0.00112     0.78599
      H   25    0.20258      0.00000     0.79627    0.00115     0.79742
      H   26    0.21399      0.00000     0.78488    0.00112     0.78601
      H   27    0.20680      0.00000     0.79216    0.00104     0.79320
      H   28    0.21189      0.00000     0.78714    0.00098     0.78811
      H   29    0.20842      0.00000     0.79038    0.00119     0.79158
      H   30    0.21395      0.00000     0.78493    0.00113     0.78605
      H   31    0.20252      0.00000     0.79633    0.00115     0.79748
      H   32    0.21399      0.00000     0.78488    0.00113     0.78601
      H   33    0.20669      0.00000     0.79227    0.00104     0.79331
      H   34    0.20831      0.00000     0.79049    0.00119     0.79169
      H   35    0.21182      0.00000     0.78720    0.00098     0.78818
      H   36    0.20667      0.00000     0.79229    0.00104     0.79333
      H   37    0.21188      0.00000     0.78714    0.00098     0.78812
      H   38    0.20830      0.00000     0.79050    0.00120     0.79170
 =======================================================================
   * Total *    0.00000     29.98832    83.74730    0.26438   114.00000

                      1                      2                      3
                      A                      A                      A
 Frequencies --     60.0945                62.1998               119.5804
 Red. masses --      2.9529                 2.8414                 3.2689
 Frc consts  --      0.0063                 0.0065                 0.0275
 IR Inten    --      0.0832                 0.0045                 3.4559

                      4                      5                      6
                      A                      A                      A
 Frequencies --    141.6805               144.7376               152.3148
 Red. masses --      3.0619                 3.4650                 1.0491
 Frc consts  --      0.0362                 0.0428                 0.0143
 IR Inten    --      0.0143                 0.4340                 0.1724

                      7                      8                      9
                      A                      A                      A
 Frequencies --    209.5335               234.1632               267.5235
 Red. masses --      2.8888                 3.9114                 2.8931
 Frc consts  --      0.0747                 0.1264                 0.1220
 IR Inten    --      2.9667                 0.5216                 0.0010

                     10                     11                     12
                      A                      A                      A
 Frequencies --    270.8386               279.0934               300.1713
 Red. masses --      1.0530                 1.0497                 2.3255
 Frc consts  --      0.0455                 0.0482                 0.1235
 IR Inten    --      0.0003                 0.3938                 0.3230

                     13                     14                     15
                      A                      A                      A
 Frequencies --    312.6824               334.1559               334.3756
 Red. masses --      1.9174                 2.2155                 1.3683
 Frc consts  --      0.1105                 0.1458                 0.0901
 IR Inten    --      0.0103                 3.5287                 0.3133

                     16                     17                     18
                      A                      A                      A
 Frequencies --    337.4358               346.5402               356.6639
 Red. masses --      1.1080                 1.2316                 1.1310
 Frc consts  --      0.0743                 0.0871                 0.0848
 IR Inten    --      0.0028                 0.0026                 0.7972

                     19                     20                     21
                      A                      A                      A
 Frequencies --    359.5452               361.6565               394.3867
 Red. masses --      2.2041                 1.9315                 2.3037
 Frc consts  --      0.1679                 0.1488                 0.2111
 IR Inten    --      0.2687                 1.5260                 0.0002

                     22                     23                     24
                      A                      A                      A
 Frequencies --    404.8931               414.8646               452.6601
 Red. masses --      2.5895                 2.6546                 2.7956
 Frc consts  --      0.2501                 0.2692                 0.3375
 IR Inten    --      0.7667                 3.4548                 0.0492

                     25                     26                     27
                      A                      A                      A
 Frequencies --    537.2782               543.1912               580.3963
 Red. masses --      3.0825                 5.0093                 3.2832
 Frc consts  --      0.5243                 0.8708                 0.6516
 IR Inten    --      0.5859                 5.1133                 1.3698

                     28                     29                     30
                      A                      A                      A
 Frequencies --    581.8389               592.8870               710.4681
 Red. masses --      2.8450                 3.4777                 4.5463
 Frc consts  --      0.5675                 0.7203                 1.3521
 IR Inten    --      0.5926                 4.3408                 0.0004

                     31                     32                     33
                      A                      A                      A
 Frequencies --    796.9000               804.4250               841.7634
 Red. masses --      4.1090                 3.1785                 2.8305
 Frc consts  --      1.5374                 1.2118                 1.1817
 IR Inten    --      0.0352                 3.9518                 0.1412

                     34                     35                     36
                      A                      A                      A
 Frequencies --    909.7038               938.1656               943.9114
 Red. masses --      1.4363                 2.3897                 1.3700
 Frc consts  --      0.7003                 1.2392                 0.7192
 IR Inten    --     36.1623                19.5086                 0.0442

                     37                     38                     39
                      A                      A                      A
 Frequencies --    953.6985               955.6650               955.8501
 Red. masses --      3.1027                 1.6244                 1.6344
 Frc consts  --      1.6627                 0.8741                 0.8798
 IR Inten    --     11.4712                 0.5463                 3.7393

                     40                     41                     42
                      A                      A                      A
 Frequencies --    967.6835               971.6003               979.1445
 Red. masses --      1.5667                 1.6430                 1.2020
 Frc consts  --      0.8644                 0.9138                 0.6789
 IR Inten    --      0.2530                18.6653                 0.2327

                     43                     44                     45
                      A                      A                      A
 Frequencies --    979.4710              1020.1294              1034.2626
 Red. masses --      1.2028                 5.9733                 1.4773
 Frc consts  --      0.6799                 3.6625                 0.9311
 IR Inten    --      1.4825                 4.6823                 4.8643

                     46                     47                     48
                      A                      A                      A
 Frequencies --   1054.5683              1058.1882              1062.8466
 Red. masses --      1.4028                 1.3908                 1.3948
 Frc consts  --      0.9191                 0.9176                 0.9283
 IR Inten    --      3.1968                 0.2589                 0.0261

                     49                     50                     51
                      A                      A                      A
 Frequencies --   1065.0181              1074.7133              1161.3878
 Red. masses --      1.3916                 1.5582                 1.5383
 Frc consts  --      0.9300                 1.0604                 1.2225
 IR Inten    --      0.0366                10.7464                 3.9326

                     52                     53                     54
                      A                      A                      A
 Frequencies --   1190.7978              1236.8207              1241.4575
 Red. masses --      1.8505                 2.0225                 2.7577
 Frc consts  --      1.5460                 1.8229                 2.5042
 IR Inten    --     31.1297                 2.6812                10.7190

                     55                     56                     57
                      A                      A                      A
 Frequencies --   1242.7256              1253.5048              1255.5629
 Red. masses --      2.8084                 3.0114                 2.9652
 Frc consts  --      2.5554                 2.7878                 2.7541
 IR Inten    --      0.0265                20.7816                20.6055

                     58                     59                     60
                      A                      A                      A
 Frequencies --   1281.9005              1296.0620              1364.8658
 Red. masses --      4.1134                 2.3987                 3.6177
 Frc consts  --      3.9826                 2.3740                 3.9707
 IR Inten    --     13.9449                 7.8019                 2.6172

                     61                     62                     63
                      A                      A                      A
 Frequencies --   1402.2290              1402.4998              1407.1806
 Red. masses --      1.2400                 1.2396                 1.2722
 Frc consts  --      1.4365                 1.4366                 1.4842
 IR Inten    --      0.3456                30.6679                 2.4129

                     64                     65                     66
                      A                      A                      A
 Frequencies --   1407.6452              1421.2458              1430.4892
 Red. masses --      1.2897                 1.3259                 1.2724
 Frc consts  --      1.5057                 1.5780                 1.5341
 IR Inten    --     28.1697                 6.0022                 0.0112

                     67                     68                     69
                      A                      A                      A
 Frequencies --   1433.8738              1445.8236              1471.9006
 Red. masses --      1.2760                 1.9803                 1.0471
 Frc consts  --      1.5457                 2.4390                 1.3366
 IR Inten    --      0.6404                11.0762                 0.0183

                     70                     71                     72
                      A                      A                      A
 Frequencies --   1473.8730              1474.9702              1476.2357
 Red. masses --      1.0628                 1.9638                 1.0457
 Frc consts  --      1.3603                 2.5172                 1.3427
 IR Inten    --      1.8770                 3.7096                 6.5103

                     73                     74                     75
                      A                      A                      A
 Frequencies --   1478.9204              1479.3683              1479.9134
 Red. masses --      1.0484                 1.0438                 1.0863
 Frc consts  --      1.3511                 1.3459                 1.4018
 IR Inten    --      1.1043                 0.0091                14.5344

                     76                     77                     78
                      A                      A                      A
 Frequencies --   1485.1474              1488.9395              1493.5845
 Red. masses --      1.3092                 1.1754                 1.0553
 Frc consts  --      1.7014                 1.5353                 1.3871
 IR Inten    --      3.6268                35.1887                 0.2058

                     79                     80                     81
                      A                      A                      A
 Frequencies --   1494.7292              1501.3549              1501.7030
 Red. masses --      1.0549                 1.0779                 1.0921
 Frc consts  --      1.3886                 1.4315                 1.4510
 IR Inten    --     22.4340                 7.4865                11.2375

                     82                     83                     84
                      A                      A                      A
 Frequencies --   1512.3669              1514.3839              1637.2357
 Red. masses --      1.1707                 1.1312                 7.9299
 Frc consts  --      1.5777                 1.5285                12.5240
 IR Inten    --     66.6792                 6.6139               178.9270

                     85                     86                     87
                      A                      A                      A
 Frequencies --   1662.3525              3025.1547              3025.3477
 Red. masses --      6.0146                 1.0354                 1.0354
 Frc consts  --      9.7926                 5.5830                 5.5836
 IR Inten    --    170.1225                24.9285                43.8804

                     88                     89                     90
                      A                      A                      A
 Frequencies --   3027.1785              3027.3912              3033.0237
 Red. masses --      1.0361                 1.0361                 1.0387
 Frc consts  --      5.5943                 5.5951                 5.6299
 IR Inten    --     25.4609                19.2936                35.7310

                     91                     92                     93
                      A                      A                      A
 Frequencies --   3033.3498              3037.4856              3096.1966
 Red. masses --      1.0387                 1.0376                 1.1029
 Frc consts  --      5.6310                 5.6403                 6.2293
 IR Inten    --     42.6868                14.0580                 9.9075

                     94                     95                     96
                      A                      A                      A
 Frequencies --   3096.4498              3097.7462              3098.0841
 Red. masses --      1.1029                 1.1023                 1.1023
 Frc consts  --      6.2304                 6.2321                 6.2334
 IR Inten    --     15.4282                32.0372                20.9920

                     97                     98                     99
                      A                      A                      A
 Frequencies --   3103.8233              3104.0111              3104.3946
 Red. masses --      1.0991                 1.1000                 1.0990
 Frc consts  --      6.2384                 6.2443                 6.2402
 IR Inten    --    113.5456                14.6486                11.4409

                    100                    101                    102
                      A                      A                      A
 Frequencies --   3106.9820              3107.1089              3108.9496
 Red. masses --      1.1024                 1.1024                 1.1017
 Frc consts  --      6.2700                 6.2704                 6.2740
 IR Inten    --      4.3567                 8.5966                 2.4811

                    103                    104                    105
                      A                      A                      A
 Frequencies --   3109.1383              3121.0666              3121.5839
 Red. masses --      1.1016                 1.1025                 1.1025
 Frc consts  --      6.2743                 6.3276                 6.3296
 IR Inten    --     98.1748                10.3210                49.8175

                    106                    107                    108
                      A                      A                      A
 Frequencies --   3123.2202              3160.4730              3164.9413
 Red. masses --      1.1036                 1.0916                 1.0918
 Frc consts  --      6.3425                 6.4239                 6.4436
 IR Inten    --     13.5269                 6.1056                 4.3289

 - Thermochemistry -
 -------------------
 Temperature   298.150 Kelvin.  Pressure   1.00000 Atm.
 Atom     1 has atomic number  6 and mass  12.00000

 Molecular mass:   205.18305 amu.
 Principal axes and moments of inertia in atomic units:
                           1         2         3
     Eigenvalues --  2280.063874091.553945570.40524
           X            1.00000   0.00015   0.00000
           Y           -0.00015   1.00000   0.00028
           Z            0.00000  -0.00028   1.00000
 This molecule is an asymmetric top.
 Rotational symmetry number  1.
 Warning -- assumption of classical behavior for rotation
           may cause significant error
 Rotational temperatures (Kelvin)      0.03799     0.02117     0.01555
 Rotational constants (GHZ):           0.79153     0.44109     0.32399
 Zero-point vibrational energy     897807.6 (Joules/Mol)
                                  214.58117 (Kcal/Mol)
 Warning -- explicit consideration of  29 degrees of freedom as
           vibrations may cause significant error
 Vibrational temperatures:     86.46    89.49   172.05   203.85   208.24
          (Kelvin)            219.15   301.47   336.91   384.91   389.68
                              401.55   431.88   449.88   480.78   481.09
                              485.49   498.59   513.16   517.30   520.34
                              567.43   582.55   596.90   651.28   773.02
                              781.53   835.06   837.14   853.03  1022.20
                             1146.56  1157.39  1211.11  1308.86  1349.81
                             1358.08  1372.16  1374.99  1375.25  1392.28
                             1397.91  1408.77  1409.24  1467.74  1488.07
                             1517.29  1522.49  1529.20  1532.32  1546.27
                             1670.98  1713.29  1779.51  1786.18  1788.00
                             1803.51  1806.47  1844.37  1864.74  1963.73
                             2017.49  2017.88  2024.62  2025.28  2044.85
                             2058.15  2063.02  2080.22  2117.73  2120.57
                             2122.15  2123.97  2127.83  2128.48  2129.26
                             2136.79  2142.25  2148.93  2150.58  2160.11
                             2160.61  2175.96  2178.86  2355.61  2391.75
                             4352.52  4352.80  4355.43  4355.74  4363.84
                             4364.31  4370.26  4454.73  4455.10  4456.96
                             4457.45  4465.70  4465.97  4466.53  4470.25
                             4470.43  4473.08  4473.35  4490.51  4491.26
                             4493.61  4547.21  4553.64

 Zero-point correction=                           0.341957 (Hartree/Particle)
 Thermal correction to Energy=                    0.358190
 Thermal correction to Enthalpy=                  0.359135
 Thermal correction to Gibbs Free Energy=         0.300530
 Sum of electronic and zero-point Energies=           -601.665736
 Sum of electronic and thermal Energies=              -601.649502
 Sum of electronic and thermal Enthalpies=            -601.648558
 Sum of electronic and thermal Free Energies=         -601.707163

                     E (Thermal)             CV                S
                      KCal/Mol        Cal/Mol-Kelvin    Cal/Mol-Kelvin
 Total                  224.768             65.040            123.344
 Electronic               0.000              0.000              0.000
 Translational            0.889              2.981             41.860
 Rotational               0.889              2.981             32.319
 Vibrational            222.990             59.078             49.165
 Vibration     1          0.597              1.973              4.454
 Vibration     2          0.597              1.972              4.386
 Vibration     3          0.609              1.933              3.107
 Vibration     4          0.615              1.912              2.781
 Vibration     5          0.616              1.908              2.740
 Vibration     6          0.619              1.900              2.643
 Vibration     7          0.642              1.826              2.048
 Vibration     8          0.654              1.789              1.847
 Vibration     9          0.673              1.733              1.612
 Vibration    10          0.675              1.727              1.591
 Vibration    11          0.679              1.712              1.539
 Vibration    12          0.693              1.673              1.416
 Vibration    13          0.701              1.650              1.348
 Vibration    14          0.716              1.607              1.240
 Vibration    15          0.716              1.607              1.239
 Vibration    16          0.718              1.601              1.224
 Vibration    17          0.725              1.582              1.182
 Vibration    18          0.732              1.562              1.137
 Vibration    19          0.734              1.556              1.124
 Vibration    20          0.736              1.551              1.115
 Vibration    21          0.761              1.482              0.984
 Vibration    22          0.770              1.460              0.945
 Vibration    23          0.778              1.438              0.910
 Vibration    24          0.811              1.355              0.788
 Vibration    25          0.892              1.168              0.571
 Vibration    26          0.898              1.155              0.558
 Vibration    27          0.937              1.074              0.485
 Vibration    28          0.939              1.071              0.482
 Vibration    29          0.950              1.047              0.462

 Normal termination of Gaussian 09 at Tue May  8 14:58:13 2018.
